 [ moleculetype ]
; Name     nrexcl
  RET        3
 
 [ atoms ]
; nr  type  resnr residue  atom  cgnr    charge     mass
   1   C1    1    RET       C1    1     0.467389  12.0110
   2   C2    1    RET       C2    2    -0.393570  12.0110
   3   C3    1    RET       C3    3    -0.062257  12.0110
   4   C4    1    RET       C4    4     0.023991  12.0110
   5   C3    1    RET       C3    5    -0.138884  12.0110
   6   C2    1    RET       C2    6    -0.319354  12.0110
   7   C7    1    RET       C7    7    -0.050617  12.0110
   8   C8    1    RET       C8    8    -0.419736  12.0110
   9   C9    1    RET       C9    9     0.727014  12.0110
   10  C10   1    RET       C10   10    0.227468  12.0110
   11  O11   1    RET       O11   11   -0.626857  15.9994
   12  H11   1    RET       H11   12    0.432676   1.0079
   13  H2    1    RET       H2    13    0.180672   1.0079
   14  H3    1    RET       H3    14    0.141966   1.0079
   15  H3    1    RET       H3    15    0.160077   1.0079
   16  H2    1    RET       H2    16    0.199780   1.0079
   17  H7    1    RET       H7    17    0.119299   1.0079
   18  O18   1    RET       O18   18   -0.526156  15.9994
   19  O19   1    RET       O19   19   -0.321081  15.9994
   20  CT1   1    RET       CT1   20    0.019116  12.0110
   21  HT1   1    RET       HT1   21    0.067034   1.0079
   22  HT1   1    RET       HT1   22    0.067034   1.0079
   23  HT1   1    RET       HT1   23    0.067034   1.0079
   24  H10   1    RET       H10   24    0.039398   1.0079
   25  H10   1    RET       H10   25    0.039398   1.0079
   26  NZ    1    RET       NZ    26   -0.567442  14.0067
   27  HZ    1    RET       HZ    27    0.348798   1.0079
   28  CT6   1    RET       CT6   28   -0.150928  12.0110
   29  HT6   1    RET       HT6   29    0.082912   1.0079
   30  HT6   1    RET       HT6   30    0.082912   1.0079
   31  HT6   1    RET       HT6   31    0.082912   1.0079
 
; Stretchings
[ bonds ]
      1     2   1     0.1398     341927.332   ;  1     C1=C2               
      2     3   1     0.1393     347875.782   ;  2     C2=C3               
      3     4   1     0.1403     325259.931   ;  3     C3=C4               
      4     5   1     0.1405     325259.931   ;  4     C4=C3               
      1     6   1     0.1398     341927.332   ;  5     C1=C2               
      5     6   1     0.1390     347875.782   ;  6     C3=C2               
      4     7   1     0.1467     288767.586   ;  7     C4-C7               
      7     8   1     0.1349     462100.031   ;  8     C7=C8               
      8     9   1     0.1494     226808.321   ;  9     C8-C9               
      8    10   1     0.1501     236272.173   ;  10    C8-C10              
      1    11   1     0.1373     373274.113   ;  11    C1-O11              
     11    12   1     0.0974     473899.560   ;  12    O11-H11             
      2    13   1     0.1090     341424.187   ;  13    C2-H2               
      3    14   1     0.1088     340192.317   ;  14    C3-H3               
      5    15   1     0.1089     340192.317   ;  15    C3-H3               
      6    16   1     0.1086     341424.187   ;  16    C2-H2               
      7    17   1     0.1092     331157.030   ;  17    C7-H7               
      9    18   1     0.1219     694094.527   ;  18    C9=O18              
      9    19   1     0.1360     296224.804   ;  19    C9-O19              
     19    20   1     0.1443     260339.096   ;  20    O19-CT1             
     20    21   1     0.1088     337385.129   ;  21    CT1-HT1             
     20    22   1     0.1091     337385.129   ;  22    CT1-HT1             
     20    23   1     0.1091     337385.129   ;  23    CT1-HT1             
     10    24   1     0.1098     307905.803   ;  24    C10-H10             
     10    25   1     0.1106     307905.803   ;  25    C10-H10             
     10    26   1     0.1460     255554.183   ;  26    C10-NZ              
     26    27   1     0.1020     414518.875   ;  27    NZ-HZ               
     26    28   1     0.1460     268521.490   ;  28    NZ-CT6              
     28    29   1     0.1093     322714.309   ;  29    CT6-HT6             
     28    30   1     0.1103     322714.309   ;  30    CT6-HT6             
     28    31   1     0.1094     322714.309   ;  31    CT6-HT6             
 
; Bendings
[ angles ]
      1    2    3   1    119.90     750.1625   ;  32    C1=C2=C3            
      2    1    6   1    120.06     199.9336   ;  33    C2=C1=C2            
      2    1   11   1    122.94     583.7599   ;  34    O11-C1=C2           
      1    2   13   1    120.14     287.7898   ;  35    C1=C2-H2            
      2    3    4   1    120.84     583.7525   ;  36    C2=C3=C4            
      3    2   13   1    119.94     358.1871   ;  37    H2-C2=C3            
      2    3   14   1    119.49     370.9830   ;  38    C2=C3-H3            
      3    4    5   1    118.33     514.4998   ;  39    C3=C4=C3            
      3    4    7   1    121.74     455.4652   ;  40    C3=C4-C7            
      4    3   14   1    119.65     311.8045   ;  41    H3-C3=C4            
      4    5    6   1    121.23     583.7525   ;  42    C4=C3=C2            
      5    4    7   1    119.90     455.4652   ;  43    C7-C4=C3            
      4    5   15   1    119.42     311.8045   ;  44    C4=C3-H3            
      1    6    5   1    119.59     750.1625   ;  45    C1=C2=C3            
      6    1   11   1    116.99     583.7599   ;  46    O11-C1=C2           
      1    6   16   1    118.87     287.7898   ;  47    C1=C2-H2            
      6    5   15   1    119.34     370.9830   ;  48    H3-C3=C2            
      5    6   16   1    121.53     358.1871   ;  49    C3=C2-H2            
      4    7    8   1    126.05     479.3041   ;  50    C4-C7=C8            
      4    7   17   1    116.44     352.5448   ;  51    C4-C7-H7            
      7    8    9   1    122.41     502.7327   ;  52    C7=C8-C9            
      7    8   10   1    123.48     488.2137   ;  53    C7=C8-C10           
      8    7   17   1    117.49     285.4045   ;  54    H7-C7=C8            
      9    8   10   1    114.02     526.7352   ;  55    C10-C8-C9           
      8    9   18   1    125.89     357.0736   ;  56    C8-C9=O18           
      8    9   19   1    110.21     170.3561   ;  57    C8-C9-O19           
      8   10   24   1    109.32     401.7602   ;  58    C8-C10-H10          
      8   10   25   1    109.72     401.7602   ;  59    C8-C10-H10          
      8   10   26   1    109.06     612.7328   ;  60    C8-C10-NZ           
      1   11   12   1    108.38     491.8704   ;  61    C1-O11-H11          
     18    9   19   1    123.88     943.9790   ;  62    O19-C9=O18          
      9   19   20   1    113.66     752.2950   ;  63    C9-O19-CT1          
     19   20   21   1    105.08     520.6934   ;  64    O19-CT1-HT1         
     19   20   22   1    110.50     520.6934   ;  65    O19-CT1-HT1         
     19   20   23   1    110.05     520.6934   ;  66    O19-CT1-HT1         
     21   20   22   1    110.90     335.7692   ;  67    HT1-CT1-HT1         
     21   20   23   1    110.94     335.7692   ;  68    HT1-CT1-HT1         
     22   20   23   1    109.32     335.7692   ;  69    HT1-CT1-HT1         
     24   10   25   1    107.19     366.9161   ;  70    H10-C10-H10         
     24   10   26   1    107.33     483.9202   ;  71    NZ-C10-H10          
     25   10   26   1    114.11     483.9202   ;  72    NZ-C10-H10          
     10   26   27   1    108.41     467.2431   ;  73    C10-NZ-HZ           
     10   26   28   1    112.32     688.4828   ;  74    C10-NZ-CT6          
     27   26   28   1    109.56     457.3615   ;  75    CT6-NZ-HZ           
     26   28   29   1    109.20     469.3542   ;  76    NZ-CT6-HT6          
     26   28   30   1    114.03     469.3542   ;  77    NZ-CT6-HT6          
     26   28   31   1    108.83     469.3542   ;  78    NZ-CT6-HT6          
     29   28   30   1    108.58     341.1806   ;  79    HT6-CT6-HT6         
     29   28   31   1    108.08     341.1806   ;  80    HT6-CT6-HT6         
     30   28   31   1    107.97     341.1806   ;  81    HT6-CT6-HT6         
 
; Torsions
[ dihedrals ]
; benzene ring C-C-C-C
      1   2   3   4   2      0.0     50.106     ;     82      C1=C2=C3=C4         
      2   3   4   5   2      0.0     50.106     ;     83      C2=C3=C4=C3         
      3   4   5   6   2      0.0     50.106     ;     84      C3=C4=C3=C2         
      4   5   6   1   2      0.0     50.106     ;     85      C4=C3=C2=C1         
      2   1   6   5   2      0.0     50.106     ;     86      C3=C2=C1=C2         
      6   1   2   3   2      0.0     50.106     ;     87      C2=C1=C2=C3         
; benzene ring C-C-C-H
      1   2   3  14   2    180.0     50.106     ;     88      C1=C2=C3-H3         
     15   5   6   1   2    180.0     50.106     ;     89      C1=C2=C3-H3         
      6   1   2  13   2    180.0     50.106     ;     90      C2=C1=C2-H2         
      2   1   6  16   2    180.0     50.106     ;     91      H2-C2=C1=C2         
     13   2   3   4   2    180.0     50.106     ;     92      H2-C2=C3=C4         
      4   5   6  16   2    180.0     50.106     ;     93      C4=C3=C2-H2         
     14   3   4   5   2    180.0     50.106     ;     94      H3-C3=C4=C3         
      3   4   5  15   2    180.0     50.106     ;     95      C3=C4=C3-H3         
; benzene ring H-C-C-H
     13   2   3  14   2      0.0     26.966     ;     96      H2-C2=C3-H3         
     15   5   6  16   2      0.0     26.966     ;     97      H3-C3=C2-H2         
; benzene ring O-C-C-H
     11   1   6  16   2      0.0     50.106     ;     98      O11-C1=C2-H2        
     11   1   2  13   2      0.0     50.106     ;     99      O11-C1=C2-H2        
; benzene ring substituent H-C-C-C
     14   3   4   7   2      0.0     50.106     ;     100     H3-C3=C4-C7         
      7   4   5  15   2      0.0     50.106     ;     101     C7-C4=C3-H3         
; oop motion
     11   2   6   1   2      0.0     50.106     ;     102     C1=C2--C2--O11       *
      7   3   5   4   2      0.0     50.106     ;     103     C4=C3--C3--C7        *
     13   1   3   2   2      0.0     26.966     ;     104     C2=C3--C1--H2        *
     16   1   5   6   2      0.0     26.966     ;     105     C2=C3--C1--H2        *
     14   2   4   3   2      0.0     26.966     ;     106     C3=C4--C2--H3        *
     15   4   6   5   2      0.0     26.966     ;     107     C3=C2--C4--H3        *
      7   4   8  17   2      0.0    549.690     ;     108     C7-C4--C8--H7        *
     10   7   9   8   2      0.0    549.690     ;     109     C8-C9--C7--C10       *
      9   8  18  19   2      0.0    549.690     ;     110     C9-C8--O18--O19      *
; flexible CH3
      9  19  20  21   1      0.00          3.780   3     ;     111     C9-O19-CT1-HT1      
      9  19  20  22   1      0.00          3.780   3     ;     112     C9-O19-CT1-HT1      
      9  19  20  23   1      0.00          3.780   3     ;     113     C9-O19-CT1-HT1      
     10  26  28  29   1      0.00          7.266   3     ;     114     C10-NZ-CT6-HT6      
     10  26  28  30   1      0.00          7.266   3     ;     115     C10-NZ-CT6-HT6      
     10  26  28  31   1      0.00          7.266   3     ;     116     C10-NZ-CT6-HT6      
; OH from Giacomo - ask for ref, add to assign
      2   1  11  12   1      0.00          7.882   0     ;     117     H11-O11-C1=C2       
      2   1  11  12   1      0.00          0.034   1     ;     118     H11-O11-C1=C2       
      2   1  11  12   1      0.00        -11.406   2     ;     119     H11-O11-C1=C2       
      2   1  11  12   1      0.00          0.649   3     ;     120     H11-O11-C1=C2       
      2   1  11  12   1      0.00          0.261   4     ;     121     H11-O11-C1=C2       
      2   1  11  12   1      0.00          0.022   5     ;     122     H11-O11-C1=C2       
; delta 1
      3   4   7   8   1      0.00         13.573   0     ;     123     C3=C4-C7=C8         
      3   4   7   8   1      0.00         -1.324   2     ;     124     C3=C4-C7=C8         
      3   4   7   8   1      0.00          1.653   4     ;     125     C3=C4-C7=C8         
      3   4   7   8   1      0.00          0.344   6     ;     126     C3=C4-C7=C8         
      5   4   7   8   1      0.00         13.573   0     ;     127     C3=C4-C7=C8         
      5   4   7   8   1      0.00         -1.324   2     ;     128     C3=C4-C7=C8         
      5   4   7   8   1      0.00          1.653   4     ;     129     C3=C4-C7=C8         
      5   4   7   8   1      0.00          0.344   6     ;     130     C3=C4-C7=C8         
; delta 2
      7   8   9  19   1      0.00          6.786   0     ;     131     C10-C8-C9-O19       
      7   8   9  19   1      0.00          9.426   1     ;     132     C10-C8-C9-O19       
      7   8   9  19   1      0.00          1.141   2     ;     133     C10-C8-C9-O19       
      7   8   9  19   1      0.00         -7.023   3     ;     134     C10-C8-C9-O19       
      7   8   9  19   1      0.00         -1.507   4     ;     135     C10-C8-C9-O19       
      7   8   9  19   1      0.00         -0.446   5     ;     136     C10-C8-C9-O19       
; delta 3
      7   8  10  26   1      0.00          6.786   0     ;     137     C7=C8-C10-NZ        
      7   8  10  26   1      0.00          6.204   1     ;     138     C7=C8-C10-NZ        
      7   8  10  26   1      0.00          1.211   2     ;     139     C7=C8-C10-NZ        
      7   8  10  26   1      0.00         -8.102   3     ;     140     C7=C8-C10-NZ        
      7   8  10  26   1      0.00         -0.303   4     ;     141     C7=C8-C10-NZ        
      7   8  10  26   1      0.00         -1.561   5     ;     142     C7=C8-C10-NZ        
; delta 4
      8  10  26  28   1      0.00          6.786   0     ;     143     C8-C10-NZ-CT6       
      8  10  26  28   1      0.00          8.898   1     ;     144     C8-C10-NZ-CT6       
      8  10  26  28   1      0.00          4.219   2     ;     145     C8-C10-NZ-CT6       
      8  10  26  28   1      0.00          6.010   3     ;     146     C8-C10-NZ-CT6       
      8  10  26  28   1      0.00         -3.872   4     ;     147     C8-C10-NZ-CT6       
      8  10  26  28   1      0.00          0.262   5     ;     148     C8-C10-NZ-CT6       
; delta 5
      8   9  19  20   1      0.00          6.786   0     ;     149     C8-C9-O19-CT1       
      8   9  19  20   1      0.00         18.065   1     ;     150     C8-C9-O19-CT1       
      8   9  19  20   1      0.00        -20.264   2     ;     151     C8-C9-O19-CT1       
      8   9  19  20   1      0.00         -1.364   3     ;     152     C8-C9-O19-CT1       
      8   9  19  20   1      0.00          3.335   4     ;     153     C8-C9-O19-CT1       
      8   9  19  20   1      0.00          0.764   5     ;     154     C8-C9-O19-CT1       
; double bond - Phi1
      4   7   8   9   1      0.00         13.573   0     ;     155     C4-C7=C8-C9         
      4   7   8   9   1      0.00        -29.564   2     ;     156     C4-C7=C8-C9         
      4   7   8   9   1      0.00          8.490   4     ;     157     C4-C7=C8-C9         
      4   7   8   9   1      0.00         -2.949   6     ;     158     C4-C7=C8-C9         
      4   7   8  10   1      0.00         13.573   0     ;     159     C4-C7=C8-C10        
      4   7   8  10   1      0.00        -29.564   2     ;     160     C4-C7=C8-C10        
      4   7   8  10   1      0.00          8.490   4     ;     161     C4-C7=C8-C10        
      4   7   8  10   1      0.00         -2.949   6     ;     162     C4-C7=C8-C10        
 
; Nonbonded terms
[ pairs ]
; Fragm.  2 --  Fragm.  3
  3     9   2    1.000     0.000     0.000      0.3000       0.1000000     ;  C3   --C
  3    18   2    1.000     0.000     0.000      0.2850       0.1000000     ;  C3   --O
  3    19   2    1.000     0.000     0.000      0.2810       0.1000000     ;  C3   --O
  3    20   2    1.000     0.000     0.000      0.3400       0.1000000     ;  C3   --C
  3    21   2    1.000     0.000     0.000      0.2520       0.1000000     ;  C3   --H
  3    22   2    1.000     0.000     0.000      0.2520       0.1000000     ;  C3   --H
  3    23   2    1.000     0.000     0.000      0.2520       0.1000000     ;  C3   --H
  4    18   2    1.000     0.000     0.000      0.3040       0.1000000     ;  C4   --O
  4    19   2    1.000     0.000     0.000      0.2860       0.1000000     ;  C4   --O
  4    20   2    1.000     0.000     0.000      0.3400       0.1000000     ;  C4   --C
  4    21   2    1.000     0.000     0.000      0.2520       0.1000000     ;  C4   --H
  4    22   2    1.000     0.000     0.000      0.2520       0.1000000     ;  C4   --H
  4    23   2    1.000     0.000     0.000      0.2520       0.1000000     ;  C4   --H
  5     9   2    1.000     0.000     0.000      0.3000       0.1000000     ;  C3   --C
  5    18   2    1.000     0.000     0.000      0.2850       0.1000000     ;  C3   --O
  5    19   2    1.000     0.000     0.000      0.2810       0.1000000     ;  C3   --O
  5    20   2    1.000     0.000     0.000      0.3400       0.1000000     ;  C3   --C
  5    21   2    1.000     0.000     0.000      0.2520       0.1000000     ;  C3   --H
  5    22   2    1.000     0.000     0.000      0.2520       0.1000000     ;  C3   --H
  5    23   2    1.000     0.000     0.000      0.2520       0.1000000     ;  C3   --H
 14    18   2    1.000     0.000     0.000      0.2120       0.1000000     ;  H3   --O
 14    19   2    1.000     0.000     0.000      0.2230       0.1000000     ;  H3   --O
 14    20   2    1.000     0.000     0.000      0.2520       0.1000000     ;  H3   --C
 14    21   2    1.000     0.000     0.000      0.1640       0.0500000     ;  H3   --H
 14    22   2    1.000     0.000     0.000      0.1640       0.0500000     ;  H3   --H
 14    23   2    1.000     0.000     0.000      0.1640       0.0500000     ;  H3   --H
 15    18   2    1.000     0.000     0.000      0.2120       0.1000000     ;  H3   --O
 15    19   2    1.000     0.000     0.000      0.2230       0.1000000     ;  H3   --O
 15    20   2    1.000     0.000     0.000      0.2520       0.1000000     ;  H3   --C
 15    21   2    1.000     0.000     0.000      0.1640       0.0500000     ;  H3   --H
 15    22   2    1.000     0.000     0.000      0.1640       0.0500000     ;  H3   --H
 15    23   2    1.000     0.000     0.000      0.1640       0.0500000     ;  H3   --H
; Fragm.  2 --  Fragm.  4
  3    10   2    1.000     0.000     0.000      0.3180       0.1000000     ;  C3   --C
  3    24   2    1.000     0.000     0.000      0.2520       0.1000000     ;  C3   --H
  3    25   2    1.000     0.000     0.000      0.2520       0.1000000     ;  C3   --H
  3    26   2    1.000     0.000     0.000      0.3330       0.1000000     ;  C3   --N
  3    28   2    1.000     0.000     0.000      0.3400       0.1000000     ;  C3   --C
  3    29   2    1.000     0.000     0.000      0.2520       0.1000000     ;  C3   --H
  3    30   2    1.000     0.000     0.000      0.2520       0.1000000     ;  C3   --H
  3    31   2    1.000     0.000     0.000      0.2520       0.1000000     ;  C3   --H
  4    24   2    1.000     0.000     0.000      0.2520       0.1000000     ;  C4   --H
  4    25   2    1.000     0.000     0.000      0.2520       0.1000000     ;  C4   --H
  4    26   2    1.000     0.000     0.000      0.3330       0.1000000     ;  C4   --N
  4    27   2    1.000     0.000     0.000      0.2230       0.1000000     ;  C4   --H
  4    28   2    1.000     0.000     0.000      0.3400       0.1000000     ;  C4   --C
  4    29   2    1.000     0.000     0.000      0.2520       0.1000000     ;  C4   --H
  4    30   2    1.000     0.000     0.000      0.2520       0.1000000     ;  C4   --H
  4    31   2    1.000     0.000     0.000      0.2520       0.1000000     ;  C4   --H
  5    10   2    1.000     0.000     0.000      0.3180       0.1000000     ;  C3   --C
  5    24   2    1.000     0.000     0.000      0.2520       0.1000000     ;  C3   --H
  5    25   2    1.000     0.000     0.000      0.2520       0.1000000     ;  C3   --H
  5    26   2    1.000     0.000     0.000      0.3330       0.1000000     ;  C3   --N
  5    27   2    1.000     0.000     0.000      0.2230       0.1000000     ;  C3   --H
  5    28   2    1.000     0.000     0.000      0.3400       0.1000000     ;  C3   --C
  5    29   2    1.000     0.000     0.000      0.2520       0.1000000     ;  C3   --H
  5    30   2    1.000     0.000     0.000      0.2520       0.1000000     ;  C3   --H
  5    31   2    1.000     0.000     0.000      0.2520       0.1000000     ;  C3   --H
 14    24   2    1.000     0.000     0.000      0.1640       0.0500000     ;  H3   --H
 14    25   2    1.000     0.000     0.000      0.1640       0.0500000     ;  H3   --H
 14    26   2    1.000     0.000     0.000      0.2440       0.1000000     ;  H3   --N
 14    27   2    1.000     0.000     0.000      0.1350       0.1000000     ;  H3   --H
 14    28   2    1.000     0.000     0.000      0.2520       0.1000000     ;  H3   --C
 14    29   2    1.000     0.000     0.000      0.1640       0.0500000     ;  H3   --H
 14    30   2    1.000     0.000     0.000      0.1640       0.0500000     ;  H3   --H
 14    31   2    1.000     0.000     0.000      0.1640       0.0500000     ;  H3   --H
 15    24   2    1.000     0.000     0.000      0.1640       0.0500000     ;  H3   --H
 15    25   2    1.000     0.000     0.000      0.1640       0.0500000     ;  H3   --H
 15    26   2    1.000     0.000     0.000      0.2440       0.1000000     ;  H3   --N
 15    27   2    1.000     0.000     0.000      0.1350       0.0500000     ;  H3   --H
 15    28   2    1.000     0.000     0.000      0.2520       0.1000000     ;  H3   --C
 15    29   2    1.000     0.000     0.000      0.1640       0.0500000     ;  H3   --H
 15    30   2    1.000     0.000     0.000      0.1640       0.0500000     ;  H3   --H
 15    31   2    1.000     0.000     0.000      0.1640       0.0500000     ;  H3   --H
; Fragm.  3 --  Fragm.  4
  7    28   2    1.000     0.000     0.000      0.3340       0.1000000     ;  C7   --C
  7    29   2    1.000     0.000     0.000      0.2490       0.1000000     ;  C7   --H
  7    30   2    1.000     0.000     0.000      0.2490       0.1000000     ;  C7   --H
  7    31   2    1.000     0.000     0.000      0.2490       0.1000000     ;  C7   --H
  9    27   2    1.000     0.000     0.000      0.2230       0.1000000     ;  C9   --H
  9    28   2    1.000     0.000     0.000      0.3000       0.1000000     ;  C9   --C
  9    29   2    1.000     0.000     0.000      0.2520       0.1000000     ;  C9   --H
  9    30   2    1.000     0.000     0.000      0.2520       0.1000000     ;  C9   --H
  9    31   2    1.000     0.000     0.000      0.2520       0.1000000     ;  C9   --H
 18    24   2    1.000     0.000     0.000      0.2300       0.1000000     ;  O18
 18    25   2    1.000     0.000     0.000      0.2300       0.1000000     ;  O18
 18    26   2    1.000     0.000     0.000      0.2940       0.2000000     ;  O18
 18    27   2    1.000     0.000     0.000      0.2010       0.1000000     ;  O18
 18    28   2    1.000     0.000     0.000      0.3180       0.1000000     ;  O18
 18    29   2    1.000     0.000     0.000      0.2300       0.1000000     ;  O18
 18    30   2    1.000     0.000     0.000      0.2300       0.1000000     ;  O18
 18    31   2    1.000     0.000     0.000      0.2300       0.1000000     ;  O18
 17    26   2    1.000     0.000     0.000      0.2280       0.1000000     ;  H7   --N
 17    27   2    1.000     0.000     0.000      0.1350       0.0500000     ;  H7   --H
 17    28   2    1.000     0.000     0.000      0.2520       0.1000000     ;  H7   --C
 17    29   2    1.000     0.000     0.000      0.1640       0.0500000     ;  H7   --H
 17    30   2    1.000     0.000     0.000      0.1640       0.0500000     ;  H7   --H
 17    31   2    1.000     0.000     0.000      0.1640       0.0500000     ;  H7   --H
 19    24   2    1.000     0.000     0.000      0.2250       0.1000000     ;  O19
 19    25   2    1.000     0.000     0.000      0.2250       0.1000000     ;  O19
 19    26   2    1.000     0.000     0.000      0.3010       0.2000000     ;  O19
 19    27   2    1.000     0.000     0.000      0.2030       0.1000000     ;  O19
 19    28   2    1.000     0.000     0.000      0.3200       0.1000000     ;  O19
 19    29   2    1.000     0.000     0.000      0.2320       0.1000000     ;  O19
 19    30   2    1.000     0.000     0.000      0.2320       0.1000000     ;  O19
 19    31   2    1.000     0.000     0.000      0.2320       0.1000000     ;  O19
 20    24   2    1.000     0.000     0.000      0.2520       0.1000000     ;  CT1
 20    25   2    1.000     0.000     0.000      0.2520       0.1000000     ;  CT1
 20    26   2    1.000     0.000     0.000      0.3200       0.1000000     ;  CT1
 20    27   2    1.000     0.000     0.000      0.2230       0.1000000     ;  CT1
 20    28   2    1.000     0.000     0.000      0.3400       0.1000000     ;  CT1
 20    29   2    1.000     0.000     0.000      0.2520       0.1000000     ;  CT1
 20    30   2    1.000     0.000     0.000      0.2520       0.1000000     ;  CT1
 20    31   2    1.000     0.000     0.000      0.2520       0.1000000     ;  CT1
 21    24   2    1.000     0.000     0.000      0.1640       0.0500000     ;  HT1
 21    25   2    1.000     0.000     0.000      0.1640       0.0500000     ;  HT1
 21    26   2    1.000     0.000     0.000      0.2410       0.1000000     ;  HT1
 21    27   2    1.000     0.000     0.000      0.1350       0.0500000     ;  HT1
 21    28   2    1.000     0.000     0.000      0.2520       0.1000000     ;  HT1
 21    29   2    1.000     0.000     0.000      0.1640       0.0500000     ;  HT1
 21    30   2    1.000     0.000     0.000      0.1640       0.0500000     ;  HT1
 21    31   2    1.000     0.000     0.000      0.1640       0.0500000     ;  HT1
 22    24   2    1.000     0.000     0.000      0.1640       0.0500000     ;  HT1
 22    25   2    1.000     0.000     0.000      0.1640       0.0500000     ;  HT1
 22    26   2    1.000     0.000     0.000      0.2410       0.1000000     ;  HT1
 22    27   2    1.000     0.000     0.000      0.1350       0.0500000     ;  HT1
 22    28   2    1.000     0.000     0.000      0.2520       0.1000000     ;  HT1
 22    29   2    1.000     0.000     0.000      0.1640       0.0500000     ;  HT1
 22    30   2    1.000     0.000     0.000      0.1640       0.0500000     ;  HT1
 22    31   2    1.000     0.000     0.000      0.1640       0.0500000     ;  HT1
 23    24   2    1.000     0.000     0.000      0.1640       0.0500000     ;  HT1
 23    25   2    1.000     0.000     0.000      0.1640       0.0500000     ;  HT1
 23    26   2    1.000     0.000     0.000      0.2410       0.1000000     ;  HT1
 23    27   2    1.000     0.000     0.000      0.1350       0.0500000     ;  HT1
 23    28   2    1.000     0.000     0.000      0.2520       0.1000000     ;  HT1
 23    29   2    1.000     0.000     0.000      0.1640       0.0500000     ;  HT1
 23    30   2    1.000     0.000     0.000      0.1640       0.0500000     ;  HT1
 23    31   2    1.000     0.000     0.000      0.1640       0.0500000     ;  HT1
 
; Exclusions from default nonbonded
[ exclusions ]
; ai        aj
     1     2
     1     3
     1     4
     1     5
     1     6
     1     7
     1     8
     1     9
     1    10
     1    11
     1    12
     1    13
     1    14
     1    15
     1    16
     1    17
     1    18
     1    19
     1    20
     1    21
     1    22
     1    23
     1    24
     1    25
     1    26
     1    27
     1    28
     1    29
     1    30
     1    31
     2     3
     2     4
     2     5
     2     6
     2     7
     2     8
     2     9
     2    10
     2    11
     2    12
     2    13
     2    14
     2    15
     2    16
     2    17
     2    18
     2    19
     2    20
     2    21
     2    22
     2    23
     2    24
     2    25
     2    26
     2    27
     2    28
     2    29
     2    30
     2    31
     3     4
     3     5
     3     6
     3     7
     3     8
     3     9
     3    10
     3    11
     3    12
     3    13
     3    14
     3    15
     3    16
     3    17
     3    18
     3    19
     3    20
     3    21
     3    22
     3    23
     3    24
     3    25
     3    26
     3    27
     3    28
     3    29
     3    30
     3    31
     4     5
     4     6
     4     7
     4     8
     4     9
     4    10
     4    11
     4    12
     4    13
     4    14
     4    15
     4    16
     4    17
     4    18
     4    19
     4    20
     4    21
     4    22
     4    23
     4    24
     4    25
     4    26
     4    27
     4    28
     4    29
     4    30
     4    31
     5     6
     5     7
     5     8
     5     9
     5    10
     5    11
     5    12
     5    13
     5    14
     5    15
     5    16
     5    17
     5    18
     5    19
     5    20
     5    21
     5    22
     5    23
     5    24
     5    25
     5    26
     5    27
     5    28
     5    29
     5    30
     5    31
     6     7
     6     8
     6     9
     6    10
     6    11
     6    12
     6    13
     6    14
     6    15
     6    16
     6    17
     6    18
     6    19
     6    20
     6    21
     6    22
     6    23
     6    24
     6    25
     6    26
     6    27
     6    28
     6    29
     6    30
     6    31
     7     8
     7     9
     7    10
     7    11
     7    12
     7    13
     7    14
     7    15
     7    16
     7    17
     7    18
     7    19
     7    20
     7    21
     7    22
     7    23
     7    24
     7    25
     7    26
     7    27
     7    28
     7    29
     7    30
     7    31
     8     9
     8    10
     8    11
     8    12
     8    13
     8    14
     8    15
     8    16
     8    17
     8    18
     8    19
     8    20
     8    21
     8    22
     8    23
     8    24
     8    25
     8    26
     8    27
     8    28
     8    29
     8    30
     8    31
     9    10
     9    11
     9    12
     9    13
     9    14
     9    15
     9    16
     9    17
     9    18
     9    19
     9    20
     9    21
     9    22
     9    23
     9    24
     9    25
     9    26
     9    27
     9    28
     9    29
     9    30
     9    31
    10    11
    10    12
    10    13
    10    14
    10    15
    10    16
    10    17
    10    18
    10    19
    10    20
    10    21
    10    22
    10    23
    10    24
    10    25
    10    26
    10    27
    10    28
    10    29
    10    30
    10    31
    11    12
    11    13
    11    14
    11    15
    11    16
    11    17
    11    18
    11    19
    11    20
    11    21
    11    22
    11    23
    11    24
    11    25
    11    26
    11    27
    11    28
    11    29
    11    30
    11    31
    12    13
    12    14
    12    15
    12    16
    12    17
    12    18
    12    19
    12    20
    12    21
    12    22
    12    23
    12    24
    12    25
    12    26
    12    27
    12    28
    12    29
    12    30
    12    31
    13    14
    13    15
    13    16
    13    17
    13    18
    13    19
    13    20
    13    21
    13    22
    13    23
    13    24
    13    25
    13    26
    13    27
    13    28
    13    29
    13    30
    13    31
    14    15
    14    16
    14    17
    14    18
    14    19
    14    20
    14    21
    14    22
    14    23
    14    24
    14    25
    14    26
    14    27
    14    28
    14    29
    14    30
    14    31
    15    16
    15    17
    15    18
    15    19
    15    20
    15    21
    15    22
    15    23
    15    24
    15    25
    15    26
    15    27
    15    28
    15    29
    15    30
    15    31
    16    17
    16    18
    16    19
    16    20
    16    21
    16    22
    16    23
    16    24
    16    25
    16    26
    16    27
    16    28
    16    29
    16    30
    16    31
    17    18
    17    19
    17    20
    17    21
    17    22
    17    23
    17    24
    17    25
    17    26
    17    27
    17    28
    17    29
    17    30
    17    31
    18    19
    18    20
    18    21
    18    22
    18    23
    18    24
    18    25
    18    26
    18    27
    18    28
    18    29
    18    30
    18    31
    19    20
    19    21
    19    22
    19    23
    19    24
    19    25
    19    26
    19    27
    19    28
    19    29
    19    30
    19    31
    20    21
    20    22
    20    23
    20    24
    20    25
    20    26
    20    27
    20    28
    20    29
    20    30
    20    31
    21    22
    21    23
    21    24
    21    25
    21    26
    21    27
    21    28
    21    29
    21    30
    21    31
    22    23
    22    24
    22    25
    22    26
    22    27
    22    28
    22    29
    22    30
    22    31
    23    24
    23    25
    23    26
    23    27
    23    28
    23    29
    23    30
    23    31
    24    25
    24    26
    24    27
    24    28
    24    29
    24    30
    24    31
    25    26
    25    27
    25    28
    25    29
    25    30
    25    31
    26    27
    26    28
    26    29
    26    30
    26    31
    27    28
    27    29
    27    30
    27    31
    28    29
    28    30
    28    31
    29    30
    29    31
    30    31
