;
; Daniele Padula, daniele.padula@unisi.it
; 5ring-locked 11-cis retinal protonated Schiff base (rPSB) include topology.
;
 [ moleculetype ]
; Name     nrexcl
  R5R        3
 
 [ atoms ]
; nr  type  resnr residue  atom  cgnr    charge     mass
   1   C1    1    R5R      C1     1     0.658319   12.0110
   2   C2    1    R5R      C2     2    -0.260527   12.0110
   3   H2    1    R5R      H21    3     0.059730    1.0079
   4   H2    1    R5R      H22    4     0.059730    1.0079
   5   C3    1    R5R      C3     5     0.118563   12.0110
   6   H3    1    R5R      H31    6     0.013623    1.0079
   7   H3    1    R5R      H32    7     0.013623    1.0079
   8   C4    1    R5R      C4     8    -0.293395   12.0110
   9   H4    1    R5R      H41    9     0.086997    1.0079
   10  H4    1    R5R      H42    10    0.086997    1.0079
   11  C5    1    R5R      C5     11    0.375137   12.0110
   12  C6    1    R5R      C6     12   -0.506878   12.0110
   13  C7    1    R5R      C7     13    0.151110   12.0110
   14  H7    1    R5R      H7     14    0.126605    1.0079
   15  C8    1    R5R      C8     15   -0.331180   12.0110
   16  H8    1    R5R      H8     16    0.159351    1.0079
   17  C9    1    R5R      C9     17    0.231589   12.0110
   18 C10    1    R5R      C10    18   -0.125752   12.0110
   19 C11    1    R5R      C11    19    0.039362   12.0110
   20 H11    1    R5R      H11    20    0.192304    1.0079
   21 C12    1    R5R      C12    21   -0.467398   12.0110
   22 H12    1    R5R      H12    22    0.222757    1.0079
   23 C13    1    R5R      C13    23    0.589151   12.0110
   24 C14    1    R5R      C14    24   -0.757638   12.0110
   25 H14    1    R5R      H14    25    0.261879    1.0079
   26 C15    1    R5R      C15    26    0.314435   12.0110
   27 H15    1    R5R      H15    27    0.150658    1.0079
   28 CT1    1    R5R      CT1    28   -0.533135   12.0110
   29 HT1    1    R5R      HT11   29    0.124971    1.0079
   30 HT1    1    R5R      HT12   30    0.124971    1.0079
   31 HT1    1    R5R      HT13   31    0.124971    1.0079
   32 CT1    1    R5R      CT2    32   -0.533135   12.0110
   33 HT1    1    R5R      HT21   33    0.124971    1.0079
   34 HT1    1    R5R      HT22   34    0.124971    1.0079
   35 HT1    1    R5R      HT23   35    0.124971    1.0079
   36 CT2    1    R5R      CT3    36   -0.449087   12.0110
   37 HT2    1    R5R      HT31   37    0.122743    1.0079
   38 HT2    1    R5R      HT32   38    0.122743    1.0079
   39 HT2    1    R5R      HT33   39    0.122743    1.0079
   40 CT3    1    R5R      CT4    40   -0.393208   12.0110
   41 HT3    1    R5R      HT41   41    0.129844    1.0079
   42 HT3    1    R5R      HT42   42    0.129844    1.0079
   43 HT3    1    R5R      HT43   43    0.129844    1.0079
   44 C51    1    R5R      C51    44   -0.174041   12.0110
   45 H51    1    R5R      H511   45    0.095506    1.0079
   46 H51    1    R5R      H512   46    0.095506    1.0079
   47 CT5    1    R5R      CT5    47   -0.159207   12.0110
   48 HT5    1    R5R      HT5    48    0.118440    1.0079
   49 HT5    1    R5R      HT5    49    0.118440    1.0079
   50 HT5    1    R5R      HT5    50    0.118440    1.0079
   51  NZ    1    R5R       NZ    51   -0.348346   14.0070
   52  HZ    1    R5R       HZ    52    0.367094    1.0079
 
; Stretchings
[ bonds ]
; ring C-C
      1     2   1     0.1535     199375.303   ;  1     C1-C2               
      2     5   1     0.1520     236279.776   ;  2     C2-C3               
      5     8   1     0.1523     233764.917   ;  3     C3-C4               
      8    11   1     0.1510     209007.565   ;  4     C4-C5               
     11    12   1     0.1366     422455.387   ;  5     C5=C6               
      1    12   1     0.1532     208620.007   ;  6     C1-C6               
; ring C-CH3
      1    28   1     0.1537     196343.711   ;  7     C1-CT1              
      1    32   1     0.1536     196343.711   ;  8     C1-CT1              
     11    36   1     0.1507     234998.375   ;  9     C5-CT2              
; ring C-H
      2     3   1     0.1098     317003.992   ;  10    C2-H2               
      2     4   1     0.1099     317003.992   ;  11    C2-H2               
      5     6   1     0.1095     323093.144   ;  12    C3-H3               
      5     7   1     0.1096     323093.144   ;  13    C3-H3               
      8     9   1     0.1098     313543.012   ;  14    C4-H4               
      8    10   1     0.1102     313543.012   ;  15    C4-H4               
; chain C-C
     12    13   1     0.1459     263139.249   ;  16    C6-C7               
     13    15   1     0.1365     427066.438   ;  17    C7=C8               
     15    17   1     0.1438     261732.282   ;  18    C8-C9               
     17    18   1     0.1384     360022.710   ;  19    C9=C10              
     23    24   1     0.1389     378456.843   ;  20    C13=C14             
     24    26   1     0.1394     375451.570   ;  21    C14=C15             
     26    51   1     0.1324     441239.967   ;  22    C15=NZ              
; chain C-CH3
     17    40   1     0.1505     209997.507   ;  23    C9-CT3              
     47    51   1     0.1461     249070.365   ;  24    CT5-NZ              
; chain C-H
     13    14   1     0.1090     341195.239   ;  25    C7-H7               
     15    16   1     0.1087     342479.490   ;  26    C8-H8               
     24    25   1     0.1089     337802.285   ;  27    C14-H14             
     26    27   1     0.1089     341954.662   ;  28    C15-H15             
     51    52   1     0.1018     426547.342   ;  29    NZ-HZ               
; 5-ring C-C
     18    19   1     0.1419     310271.983   ;  30    C10=C11             
     19    21   1     0.1385     415458.280   ;  31    C11=C12             
     21    23   1     0.1414     342726.560   ;  32    C12=C13             
     23    44   1     0.1512     232953.256   ;  33    C13-C51             
     18    44   1     0.1518     224113.052   ;  34    C10-C51             
; 5-ring C-H
     19    20   1     0.1086     351326.230   ;  35    C11-H11             
     21    22   1     0.1086     348860.568   ;  36    C12-H12             
     44    45   1     0.1097     320757.111   ;  37    C51-H51             
     44    46   1     0.1097     320757.111   ;  38    C51-H51             
; methyl C-H
     28    29   1     0.1095     327346.194   ;  39    CT1-HT1             
     28    30   1     0.1093     327346.194   ;  40    CT1-HT1             
     28    31   1     0.1096     327346.194   ;  41    CT1-HT1             
     32    33   1     0.1095     327346.194   ;  42    CT1-HT1             
     32    34   1     0.1096     327346.194   ;  43    CT1-HT1             
     32    35   1     0.1095     327346.194   ;  44    CT1-HT1             
     36    37   1     0.1095     324901.607   ;  45    CT2-HT2             
     36    38   1     0.1091     324901.607   ;  46    CT2-HT2             
     36    39   1     0.1098     324901.607   ;  47    CT2-HT2             
     40    41   1     0.1089     331765.751   ;  48    CT3-HT3             
     40    42   1     0.1094     331765.751   ;  49    CT3-HT3             
     40    43   1     0.1095     331765.751   ;  50    CT3-HT3             
     47    48   1     0.1092     336130.904   ;  51    CT5-HT5             
     47    49   1     0.1090     336130.904   ;  52    CT5-HT5             
     47    50   1     0.1092     336130.904   ;  53    CT5-HT5             
 
; Bendings
[ angles ]
; C-C-C ring
      1    2    5   1    112.55     736.9941   ;  54    C1-C2-C3            
      2    5    8   1    109.42     715.2353   ;  55    C2-C3-C4            
      5    8   11   1    113.82     566.8066   ;  56    C3-C4-C5            
      8   11   12   1    121.90     477.7811   ;  57    C4-C5=C6            
      1   12   11   1    123.17     326.6681   ;  58    C1-C6=C5            
      2    1   12   1    110.30     700.4819   ;  59    C6-C1-C2            
; C-C-CH3 ring
      2    1   28   1    110.21     693.2718   ;  60    CT1-C1-C2           
      2    1   32   1    107.74     693.2718   ;  61    CT1-C1-C2           
     12    1   28   1    109.75     759.4676   ;  62    CT1-C1-C6           
     12    1   32   1    109.89     759.4676   ;  63    CT1-C1-C6           
      8   11   36   1    113.62     639.9112   ;  64    C4-C5-CT2           
     12   11   36   1    124.48     597.6276   ;  65    CT2-C5=C6           
     28    1   32   1    108.91     708.4067   ;  66    CT1-C1-CT1          
; C-C-H ring
      1    2    3   1    108.67     419.1010   ;  67    C1-C2-H2            
      1    2    4   1    108.79     419.1010   ;  68    C1-C2-H2            
      3    2    5   1    111.18     386.2695   ;  69    C3-C2-H2            
      4    2    5   1    108.79     386.2695   ;  70    C3-C2-H2            
      2    5    6   1    110.41     399.5700   ;  71    C2-C3-H3            
      2    5    7   1    110.65     399.5700   ;  72    C2-C3-H3            
      6    5    8   1    109.70     403.4595   ;  73    C4-C3-H3            
      7    5    8   1    110.05     403.4595   ;  74    C4-C3-H3            
      5    8    9   1    110.41     395.2611   ;  75    C3-C4-H4            
      5    8   10   1    109.77     395.2611   ;  76    C3-C4-H4            
      9    8   11   1    108.89     396.3161   ;  77    C5-C4-H4            
     10    8   11   1    108.14     396.3161   ;  78    C5-C4-H4            
; C-C-C chain
      1   12   13   1    114.26     491.4906   ;  79    C1-C6-C7            
     11   12   13   1    122.51     400.4846   ;  80    C5=C6-C7            
     12   13   15   1    125.56     556.7859   ;  81    C6-C7=C8            
     13   15   17   1    124.51     645.0880   ;  82    C7=C8-C9            
     15   17   18   1    119.44     560.1109   ;  83    C8-C9=C10           
     23   24   26   1    122.45     711.2260   ;  84    C13=C14=C1          
     24   26   51   1    124.83     864.7502   ;  85    C14=C15=NZ          
; C-C-CH3 chain
     15   17   40   1    119.01     405.1574   ;  86    C8-C9-CT3           
     18   17   40   1    121.55     548.1641   ;  87    CT3-C9=C10          
     26   51   47   1    125.23     744.9707   ;  88    C15=NZ-CT5          
; C-C-H chain
     12   13   14   1    116.19     341.8325   ;  89    C6-C7-H7            
     14   13   15   1    118.14     380.3632   ;  90    C8=C7-H7            
     13   15   16   1    117.52     380.8194   ;  91    C7=C8-H8            
     16   15   17   1    117.94     315.4678   ;  92    C9-C8-H8            
     23   24   25   1    118.60     334.3583   ;  93    C13=C14-H1          
     25   24   26   1    118.95     354.4239   ;  94    C15=C14-H1          
     24   26   27   1    120.17     297.9505   ;  95    C14=C15-H1          
     27   26   51   1    115.00     448.8242   ;  96    NZ=C15-H15          
     26   51   52   1    117.80     332.0885   ;  97    C15=NZ-HZ           
     47   51   52   1    116.97     348.0365   ;  98    CT5-NZ-HZ           
; 5-ring C-C-C
     17   18   19   1    127.72     394.7975   ;  99    C9=C10=C11          
     17   18   44   1    125.59     242.8349   ;  100   C9=C10-C51          
     18   19   21   1    111.38     623.3149   ;  101   C10=C11=C1          
     19   21   23   1    110.06     594.2087   ;  102   C11=C12=C1          
     21   23   44   1    107.83     611.7045   ;  103   C12=C13-C5          
     18   44   23   1    104.03     804.7628   ;  104   C10-C51-C1          
     19   18   44   1    106.69     500.0632   ;  105   C51-C10=C1          
     21   23   24   1    124.94     471.3997   ;  106   C12=C13=C1          
     24   23   44   1    127.23     130.2224   ;  107   C51-C13=C1          
; 5-ring C-C-H
     18   19   20   1    125.19     284.0291   ;  108   C10=C11-H1          
     20   19   21   1    123.42     341.5017   ;  109   C12=C11-H1          
     19   21   22   1    125.34     314.5548   ;  110   C11=C12-H1          
     22   21   23   1    124.59     306.0678   ;  111   C13=C12-H1          
     18   44   45   1    111.37     395.1447   ;  112   C10-C51-H5          
     18   44   46   1    111.36     395.1447   ;  113   C10-C51-H5          
     23   44   45   1    111.37     405.6997   ;  114   C13-C51-H5          
     23   44   46   1    111.31     405.6997   ;  115   C13-C51-H5          
; 5-ring H-C-H
     45   44   46   1    107.46     317.2052   ;  116   H51-C51-H5          
; C-C-H methyl
      1   28   29   1    111.69     387.0916   ;  117   C1-CT1-HT1          
      1   28   30   1    111.64     387.0916   ;  118   C1-CT1-HT1          
      1   28   31   1    109.85     387.0916   ;  119   C1-CT1-HT1          
      1   32   33   1    112.22     387.0916   ;  120   C1-CT1-HT1          
      1   32   34   1    109.71     387.0916   ;  121   C1-CT1-HT1          
      1   32   35   1    110.79     387.0916   ;  122   C1-CT1-HT1          
     11   36   37   1    109.52     380.0993   ;  123   C5-CT2-HT2          
     11   36   38   1    113.02     380.0993   ;  124   C5-CT2-HT2          
     11   36   39   1    111.00     380.0993   ;  125   C5-CT2-HT2          
     17   40   41   1    112.60     390.7078   ;  126   C9-CT3-HT3          
     17   40   42   1    110.45     390.7078   ;  127   C9-CT3-HT3          
     17   40   43   1    110.29     390.7078   ;  128   C9-CT3-HT3          
     48   47   51   1    109.93     490.1479   ;  129   NZ-CT5-HT5          
     49   47   51   1    108.79     490.1479   ;  130   NZ-CT5-HT5          
     50   47   51   1    109.94     490.1479   ;  131   NZ-CT5-HT5          
; H-C-H
      3    2    4   1    106.67     366.5540   ;  132   H2-C2-H2            
      6    5    7   1    106.56     370.0820   ;  133   H3-C3-H3            
      9    8   10   1    105.44     366.1063   ;  134   H4-C4-H4            
     29   28   30   1    107.78     357.9772   ;  135   HT1-CT1-HT          
     29   28   31   1    107.30     357.9772   ;  136   HT1-CT1-HT          
     30   28   31   1    108.42     357.9772   ;  137   HT1-CT1-HT          
     33   32   34   1    107.63     357.9772   ;  138   HT1-CT1-HT          
     33   32   35   1    108.22     357.9772   ;  139   HT1-CT1-HT          
     34   32   35   1    108.14     357.9772   ;  140   HT1-CT1-HT          
     37   36   38   1    108.30     360.7777   ;  141   HT2-CT2-HT          
     37   36   39   1    106.43     360.7777   ;  142   HT2-CT2-HT          
     38   36   39   1    108.33     360.7777   ;  143   HT2-CT2-HT          
     41   40   42   1    107.96     350.3925   ;  144   HT3-CT3-HT          
     41   40   43   1    107.84     350.3925   ;  145   HT3-CT3-HT          
     42   40   43   1    107.51     350.3925   ;  146   HT3-CT3-HT          
     48   47   49   1    109.31     351.4541   ;  147   HT5-CT5-HT          
     48   47   50   1    109.54     351.4541   ;  148   HT5-CT5-HT          
     49   47   50   1    109.32     351.4541   ;  149   HT5-CT5-HT          
 
; Torsions
[ dihedrals ]
; --------------------------------
;        stiff dihedrals
; --------------------------------
; C-C-C-C   chain backbone
      8  11  12  13   2    180.0    173.506     ;     150     C4-C5=C6-C7         
     36  11  12  13   2      0.0    173.506     ;     151     CT2-C5=C6-C7        
; 5-ring C-C-C-H
     18  19  21  23   2      0.0     80.897     ;     152     C10=C11=C12=C13      p
; 5-ring C-C-C-C
     19  21  23  44   2      0.0     80.897     ;     153     C11=C12=C13-C51     
     44  18  19  21   2      0.0     80.897     ;     154     C51-C10=C11=C12     
; H-C-C-H backbone
; starlike
     13  12  14  15   2      0.0    613.550     ;     155 
     11   8  12  36   2      0.0    173.506     ;     156     C5-C4--C6--CT2       *
     12   1  11  13   2      0.0    173.506     ;     157     C6-C1--C5--C7        *
     17  13  16  15   2      0.0    521.967     ;     158     C8-H8--C7--C9        *
     17  15  18  40   2      0.0    528.737     ;     159     C9-C8--C10--CT3      *
     44  17  19  18   2      0.0     80.897     ;     160     C10=C11--C9--C5      *
     19  18  20  21   2      0.0    278.256     ;     161     HOOP                 *
     21  19  22  23   2      0.0    278.256     ;     162     HOOP                 *
     23  21  24  44   2      0.0     80.897     ;     163     C10=C11--C9--C5      *
     26  23  25  24   2      0.0    330.609     ;     164     C14-H14--C13--C      *
     51  24  27  26   2      0.0    667.766     ;     165     C15-H15--C14--N      *
     52  26  47  51   2      0.0    272.376     ;     166     NZ-CT5--C15--HZ      *
; --------------------------------
; flexible dihedrals
; --------------------------------
      1   2   5   8   1      0.00          0.651   3     ;     167     C1-C2-C3-C4         
      2   5   8  11   1      0.00          0.651   3     ;     168     C2-C3-C4-C5         
      5   8  11  12   1      0.00          0.651   3     ;     169     C3-C4-C5=C6         
      8  11  12   1   1      0.00          0.651   3     ;     170     C4-C5=C6-C1         
      2   1  12  11   1      0.00          0.651   3     ;     171     C5=C6-C1-C2         
     12   1   2   5   1      0.00          0.651   3     ;     172     C6-C1-C2-C3         
; C-C-C-CH3 ring dihedrals
     32   1   2   5   1      0.00          0.651   3     ;     173     CT1-C1-C2-C3        
     28   1  12  11   1      0.00          0.651   3     ;     174     CT1-C1-C6=C5        
     32   1  12  11   1      0.00          0.651   3     ;     175     CT1-C1-C6=C5        
     28   1  12  13   1      0.00          0.651   3     ;     176     CT1-C1-C6-C7        
     32   1  12  13   1      0.00          0.651   3     ;     177     CT1-C1-C6-C7        
      5   8  11  36   1      0.00          0.651   3     ;     178     C3-C4-C5-CT2        
     36  11  12   1   1      0.00          0.651   3     ;     179     C1-C6=C5-CT2        
      2   1  12  13   1      0.00          0.651   3     ;     180     C7-C6-C1-C2         
; C-C-C-H   ring dihedrals
     12   1   2   3   1      0.00          0.651   3     ;     181     C6-C1-C2-H2         
     12   1   2   4   1      0.00          0.651   3     ;     182     C6-C1-C2-H2         
      3   2   5   8   1      0.00          0.651   3     ;     183     C4-C3-C2-H2         
      4   2   5   8   1      0.00          0.651   3     ;     184     C4-C3-C2-H2         
      1   2   5   6   1      0.00          0.651   3     ;     185     C1-C2-C3-H3         
      1   2   5   7   1      0.00          0.651   3     ;     186     C1-C2-C3-H3         
      6   5   8  11   1      0.00          0.651   3     ;     187     C5-C4-C3-H3         
      7   5   8  11   1      0.00          0.651   3     ;     188     C5-C4-C3-H3         
      2   5   8   9   1      0.00          0.651   3     ;     189     C2-C3-C4-H4         
      2   5   8  10   1      0.00          0.651   3     ;     190     C2-C3-C4-H4         
      9   8  11  12   1      0.00          0.651   3     ;     191     C6=C5-C4-H4         
     10   8  11  12   1      0.00          0.651   3     ;     192     C6=C5-C4-H4         
; C-C-C-H   ring (methyls) dihedral651
     28   1   2   3   1      0.00          0.651   3     ;     193     CT1-C1-C2-H2        
     32   1   2   3   1      0.00          0.651   3     ;     194     CT1-C1-C2-H2        
     28   1   2   4   1      0.00          0.651   3     ;     195     CT1-C1-C2-H2        
     32   1   2   4   1      0.00          0.651   3     ;     196     CT1-C1-C2-H2        
      9   8  11  36   1      0.00          0.651   3     ;     197     CT2-C5-C4-H4        
     10   8  11  36   1      0.00          0.651   3     ;     198     CT2-C5-C4-H4        
; H-C-C-H   ring dihedrals
     28   1   2   5   1      0.00          0.651   3     ;     199     CT1-C1-C2-C3        
      3   2   5   6   1      0.00          0.651   3     ;     200     H3-C3-C2-H2         
      3   2   5   7   1      0.00          0.651   3     ;     201     H3-C3-C2-H2         
      4   2   5   6   1      0.00          0.651   3     ;     202     H3-C3-C2-H2         
      4   2   5   7   1      0.00          0.651   3     ;     203     H3-C3-C2-H2         
      6   5   8   9   1      0.00          0.651   3     ;     204     H4-C4-C3-H3         
      6   5   8  10   1      0.00          0.651   3     ;     205     H4-C4-C3-H3         
      7   5   8   9   1      0.00          0.651   3     ;     206     H4-C4-C3-H3         
      7   5   8  10   1      0.00          0.651   3     ;     207     H4-C4-C3-H3         
      2   1  28  29   1      0.00          0.651   3     ;     208     HT1-CT1-C1-C2       
      2   1  28  30   1      0.00          0.651   3     ;     209     HT1-CT1-C1-C2       
      2   1  28  31   1      0.00          0.651   3     ;     210     HT1-CT1-C1-C2       
      2   1  32  33   1      0.00          0.651   3     ;     211     HT1-CT1-C1-C2       
      2   1  32  34   1      0.00          0.651   3     ;     212     HT1-CT1-C1-C2       
      2   1  32  35   1      0.00          0.651   3     ;     213     HT1-CT1-C1-C2       
     12   1  28  29   1      0.00          0.651   3     ;     214     HT1-CT1-C1-C6       
     12   1  28  30   1      0.00          0.651   3     ;     215     HT1-CT1-C1-C6       
     12   1  28  31   1      0.00          0.651   3     ;     216     HT1-CT1-C1-C6       
     12   1  32  33   1      0.00          0.651   3     ;     217     HT1-CT1-C1-C6       
     12   1  32  34   1      0.00          0.651   3     ;     218     HT1-CT1-C1-C6       
     12   1  32  35   1      0.00          0.651   3     ;     219     HT1-CT1-C1-C6       
; 5-ring C-C-C-C
     21  23  44  18   1      0.00          0.651   3     ;     220     C12=C13-C51-C10     
     19  18  44  23   1      0.00          0.651   3     ;     221     C13-C51-C10=C11     
; 5-ring C-C-C-H
     19  18  44  45   1      0.00          0.651   3     ;     222     H51-C51-C10=C11     
     19  18  44  46   1      0.00          0.651   3     ;     223     H51-C51-C10=C11     
     21  23  44  45   1      0.00          0.651   3     ;     224     C12=C13-C51-H51     
     21  23  44  46   1      0.00          0.651   3     ;     225     C12=C13-C51-H51     
; methyl rotatin
     32   1  28  29   1      0.00          0.651   3     ;     226     CT1-C1-CT1-HT1      
     32   1  28  30   1      0.00          0.651   3     ;     227     CT1-C1-CT1-HT1      
     32   1  28  31   1      0.00          0.651   3     ;     228     CT1-C1-CT1-HT1      
     28   1  32  33   1      0.00          0.651   3     ;     229     HT1-CT1-C1-CT1      
     28   1  32  34   1      0.00          0.651   3     ;     230     HT1-CT1-C1-CT1      
     28   1  32  35   1      0.00          0.651   3     ;     231     HT1-CT1-C1-CT1      
      8  11  36  37   1      0.00          0.651   3     ;     232     C4-C5-CT2-HT2       
      8  11  36  38   1      0.00          0.651   3     ;     233     C4-C5-CT2-HT2       
      8  11  36  39   1      0.00          0.651   3     ;     234     C4-C5-CT2-HT2       
     12  11  36  37   1      0.00          0.651   3     ;     235     HT2-CT2-C5=C6       
     12  11  36  38   1      0.00          0.651   3     ;     236     HT2-CT2-C5=C6       
     12  11  36  39   1      0.00          0.651   3     ;     237     HT2-CT2-C5=C6       
     15  17  40  41   1      0.00          2.000   3     ;     238     C8-C9-CT3-HT3       
     24  23  44  46   1      0.00          2.000   3     ;     239     HT4-CT4-C13=C14     
     48  47  51  26   1    180.00          2.000   3     ;     240     C15=NZ-CT5-HT5      
; C-C-C-C   chain backbone phi and delta
     12  13  15  17   1      0.00         24.547   0     ;     241     C6-C7=C8-C9         
     12  13  15  17   1      0.00          5.573   1     ;     242     C6-C7=C8-C9         
     12  13  15  17   1      0.00        -50.637   2     ;     243     C6-C7=C8-C9         
     12  13  15  17   1      0.00          5.615   3     ;     244     C6-C7=C8-C9         
     12  13  15  17   1      0.00         12.032   4     ;     245     C6-C7=C8-C9         
     12  13  15  17   1      0.00         -2.554   5     ;     246     C6-C7=C8-C9         
     15  17  18  19   1      0.00         22.547   0     ;     247     C8-C9=C10=C11       
     15  17  18  19   1      0.00          0.121   1     ;     248     C8-C9=C10=C11       
     15  17  18  19   1      0.00        -50.983   2     ;     249     C8-C9=C10=C11       
     15  17  18  19   1      0.00          0.218   3     ;     250     C8-C9=C10=C11       
     15  17  18  19   1      0.00         14.799   4     ;     251     C8-C9=C10=C11       
     15  17  18  19   1      0.00          2.377   5     ;     252     C8-C9=C10=C11       
     21  23  24  26   1      0.00         22.547   0     ;     253     C12=C13=C14=C15     
     21  23  24  26   1      0.00         -0.624   1     ;     254     C12=C13=C14=C15     
     21  23  24  26   1      0.00        -40.685   2     ;     255     C12=C13=C14=C15     
     21  23  24  26   1      0.00          1.855   3     ;     256     C12=C13=C14=C15     
     21  23  24  26   1      0.00          9.977   4     ;     257     C12=C13=C14=C15     
     21  23  24  26   1      0.00          0.515   5     ;     258     C12=C13=C14=C15     
     24  26  51  47   1      0.00         22.547   0     ;     259     C14=C15=NZ-CT5      
     24  26  51  47   1      0.00        -36.219   2     ;     260     C14=C15=NZ-CT5      
     24  26  51  47   1      0.00          7.994   4     ;     261     C14=C15=NZ-CT5      
     11  12  13  15   1      0.00         22.547   0     ;     262     C5=C6-C7=C8         
     11  12  13  15   1      0.00         -0.944   1     ;     263     C5=C6-C7=C8         
     11  12  13  15   1      0.00         -1.314   2     ;     264     C5=C6-C7=C8         
     11  12  13  15   1      0.00          3.271   3     ;     265     C5=C6-C7=C8         
     11  12  13  15   1      0.00          0.485   4     ;     266     C5=C6-C7=C8         
     11  12  13  15   1      0.00          0.187   5     ;     267     C5=C6-C7=C8         
     13  15  17  18   1      0.00         22.547   0     ;     268     C7=C8-C9=C10        
     13  15  17  18   1      0.00          4.831   1     ;     269     C7=C8-C9=C10        
     13  15  17  18   1      0.00         -8.838   2     ;     270     C7=C8-C9=C10        
     13  15  17  18   1      0.00          4.183   3     ;     271     C7=C8-C9=C10        
     13  15  17  18   1      0.00          2.355   4     ;     272     C7=C8-C9=C10        
     13  15  17  18   1      0.00         -0.670   5     ;     273     C7=C8-C9=C10        
     23  24  26  51   1      0.00         22.547   0     ;     274     C13=C14=C15=NZ      
     23  24  26  51   1      0.00          4.303   1     ;     275     C13=C14=C15=NZ      
     23  24  26  51   1      0.00        -37.538   2     ;     276     C13=C14=C15=NZ      
     23  24  26  51   1      0.00          2.904   3     ;     277     C13=C14=C15=NZ      
     23  24  26  51   1      0.00          7.999   4     ;     278     C13=C14=C15=NZ      
     23  24  26  51   1      0.00         -1.024   5     ;     279     C13=C14=C15=NZ      
 
 
; Nonbonded terms
[ pairs ]
; 1-4 interactions within ring
  1     6   2    0.833     0.000     0.000      0.2486       0.0867000     ;  C1   -    H3 
  1     7   2    0.833     0.000     0.000      0.2486       0.0867000     ;  C1   -    H3 
  1     8   2    0.833     0.000     0.000      0.3332       0.2288700     ;  C1   -    C4 
  1    36   2    0.833     0.000     0.000      0.3366       0.2288700     ;  C1   -    CT 
  2     9   2    0.833     0.000     0.000      0.2486       0.0867000     ;  C2   -    H4 
  2    10   2    0.833     0.000     0.000      0.2486       0.0867000     ;  C2   -    H4 
  2    11   2    0.833     0.000     0.000      0.3332       0.2029200     ;  C2   -    C5 
  2    13   2    0.833     0.000     0.000      0.3332       0.2029200     ;  C2   -    C7 
  2    29   2    0.833     0.000     0.000      0.2486       0.0867000     ;  C2   -    HT 
  2    30   2    0.833     0.000     0.000      0.2486       0.0867000     ;  C2   -    HT 
  2    31   2    0.833     0.000     0.000      0.2486       0.0867000     ;  C2   -    HT 
  2    33   2    0.833     0.000     0.000      0.2486       0.0867000     ;  C2   -    HT 
  2    34   2    0.833     0.000     0.000      0.2486       0.0867000     ;  C2   -    HT 
  2    35   2    0.833     0.000     0.000      0.2486       0.0867000     ;  C2   -    HT 
  3     6   2    0.833     0.000     0.000      0.1639       0.0328400     ;  H2   -    H3 
  3     7   2    0.833     0.000     0.000      0.1639       0.0328400     ;  H2   -    H3 
  3     8   2    0.833     0.000     0.000      0.2486       0.0867000     ;  H2   -    C4 
  3    12   2    0.833     0.000     0.000      0.2486       0.0768700     ;  H2   -    C6 
  3    28   2    0.833     0.000     0.000      0.2519       0.0867000     ;  H2   -    CT 
  3    32   2    0.833     0.000     0.000      0.2519       0.0867000     ;  H2   -    CT 
  4     6   2    0.833     0.000     0.000      0.1639       0.0328400     ;  H2   -    H3 
  4     7   2    0.833     0.000     0.000      0.1639       0.0328400     ;  H2   -    H3 
  4     8   2    0.833     0.000     0.000      0.2486       0.0867000     ;  H2   -    C4 
  4    12   2    0.833     0.000     0.000      0.2486       0.0768700     ;  H2   -    C6 
  4    28   2    0.833     0.000     0.000      0.2519       0.0867000     ;  H2   -    CT 
  4    32   2    0.833     0.000     0.000      0.2519       0.0867000     ;  H2   -    CT 
  5    12   2    0.833     0.000     0.000      0.3332       0.2029200     ;  C3   -    C6 
  5    28   2    0.833     0.000     0.000      0.3366       0.2288700     ;  C3   -    CT 
  5    32   2    0.833     0.000     0.000      0.3366       0.2288700     ;  C3   -    CT 
  5    36   2    0.833     0.000     0.000      0.3366       0.2288700     ;  C3   -    CT 
  6     9   2    0.833     0.000     0.000      0.1639       0.0328400     ;  H3   -    H4 
  6    10   2    0.833     0.000     0.000      0.1639       0.0328400     ;  H3   -    H4 
  6    11   2    0.833     0.000     0.000      0.2486       0.0768700     ;  H3   -    C5 
  7     9   2    0.833     0.000     0.000      0.1639       0.0328400     ;  H3   -    H4 
  7    10   2    0.833     0.000     0.000      0.1639       0.0328400     ;  H3   -    H4 
  7    11   2    0.833     0.000     0.000      0.2486       0.0768700     ;  H3   -    C5 
  8    13   2    0.833     0.000     0.000      0.3332       0.2029200     ;  C4   -    C7 
  8    37   2    0.833     0.000     0.000      0.2486       0.0867000     ;  C4   -    HT 
  8    38   2    0.833     0.000     0.000      0.2486       0.0867000     ;  C4   -    HT 
  8    39   2    0.833     0.000     0.000      0.2486       0.0867000     ;  C4   -    HT 
  9    12   2    0.833     0.000     0.000      0.2486       0.0768700     ;  H4   -    C6 
  9    36   2    0.833     0.000     0.000      0.2519       0.0867000     ;  H4   -    CT 
 10    12   2    0.833     0.000     0.000      0.2486       0.0768700     ;  H4   -    C6 
 10    36   2    0.833     0.000     0.000      0.2519       0.0867000     ;  H4   -    CT 
 11    15   2    0.833     0.000     0.000      0.3332       0.1799100     ;  C5   -    C8 
 11    28   2    0.833     0.000     0.000      0.3366       0.2029200     ;  C5   -    CT 
 11    32   2    0.833     0.000     0.000      0.3366       0.2029200     ;  C5   -    CT 
 12    29   2    0.833     0.000     0.000      0.2486       0.0768700     ;  C6   -    HT 
 12    30   2    0.833     0.000     0.000      0.2486       0.0768700     ;  C6   -    HT 
 12    31   2    0.833     0.000     0.000      0.2486       0.0768700     ;  C6   -    HT 
 12    33   2    0.833     0.000     0.000      0.2486       0.0768700     ;  C6   -    HT 
 12    34   2    0.833     0.000     0.000      0.2486       0.0768700     ;  C6   -    HT 
 12    35   2    0.833     0.000     0.000      0.2486       0.0768700     ;  C6   -    HT 
 12    37   2    0.833     0.000     0.000      0.2486       0.0768700     ;  C6   -    HT 
 12    38   2    0.833     0.000     0.000      0.2486       0.0768700     ;  C6   -    HT 
 12    39   2    0.833     0.000     0.000      0.2486       0.0768700     ;  C6   -    HT 
; other within ring
  1     9   2    1.000     0.000     0.000      0.2486       0.1734000     ;  C1   -    H4 
  1    10   2    1.000     0.000     0.000      0.2486       0.1734000     ;  C1   -    H4 
  1    36   2    1.000     0.000     0.000      0.3366       0.2288700     ;  C1   -    CT 
  1    37   2    1.000     0.000     0.000      0.2486       0.1734000     ;  C1   -    HT 
  1    38   2    1.000     0.000     0.000      0.2486       0.1734000     ;  C1   -    HT 
  1    39   2    1.000     0.000     0.000      0.2486       0.1734000     ;  C1   -    HT 
  2    36   2    1.000     0.000     0.000      0.3366       0.4577300     ;  C2   -    CT 
  2    37   2    1.000     0.000     0.000      0.2486       0.1734000     ;  C2   -    HT 
  2    38   2    1.000     0.000     0.000      0.2486       0.1734000     ;  C2   -    HT 
  2    39   2    1.000     0.000     0.000      0.2486       0.1734000     ;  C2   -    HT 
  3    29   2    1.000     0.000     0.000      0.1639       0.0656900     ;  H2   -    HT 
  3    30   2    1.000     0.000     0.000      0.1639       0.0656900     ;  H2   -    HT 
  3    31   2    1.000     0.000     0.000      0.1639       0.0656900     ;  H2   -    HT 
  3    33   2    1.000     0.000     0.000      0.1639       0.0656900     ;  H2   -    HT 
  3    34   2    1.000     0.000     0.000      0.1639       0.0656900     ;  H2   -    HT 
  3    35   2    1.000     0.000     0.000      0.1639       0.0656900     ;  H2   -    HT 
  3    36   2    1.000     0.000     0.000      0.2519       0.1734000     ;  H2   -    CT 
  3    37   2    1.000     0.000     0.000      0.1639       0.0656900     ;  H2   -    HT 
  3    38   2    1.000     0.000     0.000      0.1639       0.0656900     ;  H2   -    HT 
  3    39   2    1.000     0.000     0.000      0.1639       0.0656900     ;  H2   -    HT 
  4    29   2    1.000     0.000     0.000      0.1639       0.0656900     ;  H2   -    HT 
  4    30   2    1.000     0.000     0.000      0.1639       0.0656900     ;  H2   -    HT 
  4    31   2    1.000     0.000     0.000      0.1639       0.0656900     ;  H2   -    HT 
  4    33   2    1.000     0.000     0.000      0.1639       0.0656900     ;  H2   -    HT 
  4    34   2    1.000     0.000     0.000      0.1639       0.0656900     ;  H2   -    HT 
  4    35   2    1.000     0.000     0.000      0.1639       0.0656900     ;  H2   -    HT 
  4    36   2    1.000     0.000     0.000      0.2519       0.1734000     ;  H2   -    CT 
  4    37   2    1.000     0.000     0.000      0.1639       0.0656900     ;  H2   -    HT 
  4    38   2    1.000     0.000     0.000      0.1639       0.0656900     ;  H2   -    HT 
  4    39   2    1.000     0.000     0.000      0.1639       0.0656900     ;  H2   -    HT 
  5    29   2    1.000     0.000     0.000      0.2486       0.1734000     ;  C3   -    HT 
  5    30   2    1.000     0.000     0.000      0.2486       0.1734000     ;  C3   -    HT 
  5    31   2    1.000     0.000     0.000      0.2486       0.1734000     ;  C3   -    HT 
  5    33   2    1.000     0.000     0.000      0.2486       0.1734000     ;  C3   -    HT 
  5    34   2    1.000     0.000     0.000      0.2486       0.1734000     ;  C3   -    HT 
  5    35   2    1.000     0.000     0.000      0.2486       0.1734000     ;  C3   -    HT 
  5    37   2    1.000     0.000     0.000      0.2486       0.1734000     ;  C3   -    HT 
  5    38   2    1.000     0.000     0.000      0.2486       0.1734000     ;  C3   -    HT 
  5    39   2    1.000     0.000     0.000      0.2486       0.1734000     ;  C3   -    HT 
  6    28   2    1.000     0.000     0.000      0.2519       0.1734000     ;  H3   -    CT 
  6    29   2    1.000     0.000     0.000      0.1639       0.0656900     ;  H3   -    HT 
  6    30   2    1.000     0.000     0.000      0.1639       0.0656900     ;  H3   -    HT 
  6    31   2    1.000     0.000     0.000      0.1639       0.0656900     ;  H3   -    HT 
  6    32   2    1.000     0.000     0.000      0.2519       0.1734000     ;  H3   -    CT 
  6    33   2    1.000     0.000     0.000      0.1639       0.0656900     ;  H3   -    HT 
  6    34   2    1.000     0.000     0.000      0.1639       0.0656900     ;  H3   -    HT 
  6    35   2    1.000     0.000     0.000      0.1639       0.0656900     ;  H3   -    HT 
  6    36   2    1.000     0.000     0.000      0.2519       0.1734000     ;  H3   -    CT 
  6    37   2    1.000     0.000     0.000      0.1639       0.0656900     ;  H3   -    HT 
  6    38   2    1.000     0.000     0.000      0.1639       0.0656900     ;  H3   -    HT 
  6    39   2    1.000     0.000     0.000      0.1639       0.0656900     ;  H3   -    HT 
  7    28   2    1.000     0.000     0.000      0.2519       0.1734000     ;  H3   -    CT 
  7    29   2    1.000     0.000     0.000      0.1639       0.0656900     ;  H3   -    HT 
  7    30   2    1.000     0.000     0.000      0.1639       0.0656900     ;  H3   -    HT 
  7    31   2    1.000     0.000     0.000      0.1639       0.0656900     ;  H3   -    HT 
  7    32   2    1.000     0.000     0.000      0.2519       0.1734000     ;  H3   -    CT 
  7    33   2    1.000     0.000     0.000      0.1639       0.0656900     ;  H3   -    HT 
  7    34   2    1.000     0.000     0.000      0.1639       0.0656900     ;  H3   -    HT 
  7    35   2    1.000     0.000     0.000      0.1639       0.0656900     ;  H3   -    HT 
  7    36   2    1.000     0.000     0.000      0.2519       0.1734000     ;  H3   -    CT 
  7    37   2    1.000     0.000     0.000      0.1639       0.0656900     ;  H3   -    HT 
  7    38   2    1.000     0.000     0.000      0.1639       0.0656900     ;  H3   -    HT 
  7    39   2    1.000     0.000     0.000      0.1639       0.0656900     ;  H3   -    HT 
  8    28   2    1.000     0.000     0.000      0.3366       0.4577300     ;  C4   -    CT 
  8    29   2    1.000     0.000     0.000      0.2486       0.1734000     ;  C4   -    HT 
  8    30   2    1.000     0.000     0.000      0.2486       0.1734000     ;  C4   -    HT 
  8    31   2    1.000     0.000     0.000      0.2486       0.1734000     ;  C4   -    HT 
  8    32   2    1.000     0.000     0.000      0.3366       0.4577300     ;  C4   -    CT 
  8    33   2    1.000     0.000     0.000      0.2486       0.1734000     ;  C4   -    HT 
  8    34   2    1.000     0.000     0.000      0.2486       0.1734000     ;  C4   -    HT 
  8    35   2    1.000     0.000     0.000      0.2486       0.1734000     ;  C4   -    HT 
  9    28   2    1.000     0.000     0.000      0.2519       0.1734000     ;  H4   -    CT 
  9    29   2    1.000     0.000     0.000      0.1639       0.0656900     ;  H4   -    HT 
  9    30   2    1.000     0.000     0.000      0.1639       0.0656900     ;  H4   -    HT 
  9    31   2    1.000     0.000     0.000      0.1639       0.0656900     ;  H4   -    HT 
  9    32   2    1.000     0.000     0.000      0.2519       0.1734000     ;  H4   -    CT 
  9    33   2    1.000     0.000     0.000      0.1639       0.0656900     ;  H4   -    HT 
  9    34   2    1.000     0.000     0.000      0.1639       0.0656900     ;  H4   -    HT 
  9    35   2    1.000     0.000     0.000      0.1639       0.0656900     ;  H4   -    HT 
  9    37   2    1.000     0.000     0.000      0.1639       0.0656900     ;  H4   -    HT 
  9    38   2    1.000     0.000     0.000      0.1639       0.0656900     ;  H4   -    HT 
  9    39   2    1.000     0.000     0.000      0.1639       0.0656900     ;  H4   -    HT 
 10    28   2    1.000     0.000     0.000      0.2519       0.1734000     ;  H4   -    CT 
 10    29   2    1.000     0.000     0.000      0.1639       0.0656900     ;  H4   -    HT 
 10    30   2    1.000     0.000     0.000      0.1639       0.0656900     ;  H4   -    HT 
 10    31   2    1.000     0.000     0.000      0.1639       0.0656900     ;  H4   -    HT 
 10    32   2    1.000     0.000     0.000      0.2519       0.1734000     ;  H4   -    CT 
 10    33   2    1.000     0.000     0.000      0.1639       0.0656900     ;  H4   -    HT 
 10    34   2    1.000     0.000     0.000      0.1639       0.0656900     ;  H4   -    HT 
 10    35   2    1.000     0.000     0.000      0.1639       0.0656900     ;  H4   -    HT 
 10    37   2    1.000     0.000     0.000      0.1639       0.0656900     ;  H4   -    HT 
 10    38   2    1.000     0.000     0.000      0.1639       0.0656900     ;  H4   -    HT 
 10    39   2    1.000     0.000     0.000      0.1639       0.0656900     ;  H4   -    HT 
 11    29   2    1.000     0.000     0.000      0.2486       0.1537400     ;  C5   -    HT 
 11    30   2    1.000     0.000     0.000      0.2486       0.1537400     ;  C5   -    HT 
 11    31   2    1.000     0.000     0.000      0.2486       0.1537400     ;  C5   -    HT 
 11    33   2    1.000     0.000     0.000      0.2486       0.1537400     ;  C5   -    HT 
 11    34   2    1.000     0.000     0.000      0.2486       0.1537400     ;  C5   -    HT 
 11    35   2    1.000     0.000     0.000      0.2486       0.1537400     ;  C5   -    HT 
 28    36   2    1.000     0.000     0.000      0.3400       0.4577300     ;  CT1  -    CT 
 28    37   2    1.000     0.000     0.000      0.2519       0.1734000     ;  CT1  -    HT 
 28    38   2    1.000     0.000     0.000      0.2519       0.1734000     ;  CT1  -    HT 
 29    33   2    1.000     0.000     0.000      0.1639       0.0656900     ;  HT1  -    HT 
 29    34   2    1.000     0.000     0.000      0.1639       0.0656900     ;  HT1  -    HT 
 29    35   2    1.000     0.000     0.000      0.1639       0.0656900     ;  HT1  -    HT 
 29    36   2    1.000     0.000     0.000      0.2519       0.1734000     ;  HT1  -    CT 
 29    37   2    1.000     0.000     0.000      0.1639       0.0656900     ;  HT1  -    HT 
 29    38   2    1.000     0.000     0.000      0.1639       0.0656900     ;  HT1  -    HT 
 29    39   2    1.000     0.000     0.000      0.1639       0.0656900     ;  HT1  -    HT 
 30    33   2    1.000     0.000     0.000      0.1639       0.0656900     ;  HT1  -    HT 
 30    34   2    1.000     0.000     0.000      0.1639       0.0656900     ;  HT1  -    HT 
 30    35   2    1.000     0.000     0.000      0.1639       0.0656900     ;  HT1  -    HT 
 30    36   2    1.000     0.000     0.000      0.2519       0.1734000     ;  HT1  -    CT 
 30    37   2    1.000     0.000     0.000      0.1639       0.0656900     ;  HT1  -    HT 
 30    38   2    1.000     0.000     0.000      0.1639       0.0656900     ;  HT1  -    HT 
 30    39   2    1.000     0.000     0.000      0.1639       0.0656900     ;  HT1  -    HT 
 31    33   2    1.000     0.000     0.000      0.1639       0.0656900     ;  HT1  -    HT 
 31    34   2    1.000     0.000     0.000      0.1639       0.0656900     ;  HT1  -    HT 
 31    35   2    1.000     0.000     0.000      0.1639       0.0656900     ;  HT1  -    HT 
 31    36   2    1.000     0.000     0.000      0.2519       0.1734000     ;  HT1  -    CT 
 31    37   2    1.000     0.000     0.000      0.1639       0.0656900     ;  HT1  -    HT 
 31    38   2    1.000     0.000     0.000      0.1639       0.0656900     ;  HT1  -    HT 
 31    39   2    1.000     0.000     0.000      0.1639       0.0656900     ;  HT1  -    HT 
 31    40   2    1.000     0.000     0.000      0.2519       0.1734000     ;  HT1  -    CT 
 31    41   2    1.000     0.000     0.000      0.1639       0.0656900     ;  HT1  -    HT 
 31    42   2    1.000     0.000     0.000      0.1639       0.0656900     ;  HT1  -    HT 
 31    43   2    1.000     0.000     0.000      0.1639       0.0656900     ;  HT1  -    HT 
 32    36   2    1.000     0.000     0.000      0.3400       0.4577300     ;  CT1  -    CT 
 32    37   2    1.000     0.000     0.000      0.2519       0.1734000     ;  CT1  -    HT 
 32    38   2    1.000     0.000     0.000      0.2519       0.1734000     ;  CT1  -    HT 
 32    39   2    1.000     0.000     0.000      0.2519       0.1734000     ;  CT1  -    HT 
 33    36   2    1.000     0.000     0.000      0.2519       0.1734000     ;  HT1  -    CT 
 33    37   2    1.000     0.000     0.000      0.1639       0.0656900     ;  HT1  -    HT 
 33    38   2    1.000     0.000     0.000      0.1639       0.0656900     ;  HT1  -    HT 
 33    39   2    1.000     0.000     0.000      0.1639       0.0656900     ;  HT1  -    HT 
 34    36   2    1.000     0.000     0.000      0.2519       0.1734000     ;  HT1  -    CT 
 34    37   2    1.000     0.000     0.000      0.1639       0.0656900     ;  HT1  -    HT 
 34    38   2    1.000     0.000     0.000      0.1639       0.0656900     ;  HT1  -    HT 
 34    39   2    1.000     0.000     0.000      0.1639       0.0656900     ;  HT1  -    HT 
 35    36   2    1.000     0.000     0.000      0.2519       0.1734000     ;  HT1  -    CT 
 35    37   2    1.000     0.000     0.000      0.1639       0.0656900     ;  HT1  -    HT 
 35    38   2    1.000     0.000     0.000      0.1639       0.0656900     ;  HT1  -    HT 
 35    39   2    1.000     0.000     0.000      0.1639       0.0656900     ;  HT1  -    HT 
 37    41   2    1.000     0.000     0.000      0.1639       0.0656900     ;  HT2  -    HT 
 37    42   2    1.000     0.000     0.000      0.1639       0.0656900     ;  HT2  -    HT 
 37    43   2    1.000     0.000     0.000      0.1639       0.0656900     ;  HT2  -    HT 
 37    44   2    1.000     0.000     0.000      0.2519       0.1734000     ;  HT2  -    C5 
 38    41   2    1.000     0.000     0.000      0.1639       0.0656900     ;  HT2  -    HT 
 38    42   2    1.000     0.000     0.000      0.1639       0.0656900     ;  HT2  -    HT 
 38    43   2    1.000     0.000     0.000      0.1639       0.0656900     ;  HT2  -    HT 
 39    41   2    1.000     0.000     0.000      0.1639       0.0656900     ;  HT2  -    HT 
 39    42   2    1.000     0.000     0.000      0.1639       0.0656900     ;  HT2  -    HT 
 39    43   2    1.000     0.000     0.000      0.1639       0.0656900     ;  HT2  -    HT 
; 1-4 within 5-ring
 18    22   2    0.833     0.000     0.000      0.2486       0.0768700     ;  C10  -    H1 
 18    41   2    0.833     0.000     0.000      0.2486       0.0768700     ;  C10  -    HT 
 19    45   2    0.833     0.000     0.000      0.2486       0.0768700     ;  C11  -    H5 
 19    46   2    0.833     0.000     0.000      0.2486       0.0768700     ;  C11  -    H5 
 20    22   2    0.833     0.000     0.000      0.1639       0.0328400     ;  H11  -    H1 
 20    23   2    0.833     0.000     0.000      0.2486       0.0768700     ;  H11  -    C1 
 20    44   2    0.833     0.000     0.000      0.2519       0.0867000     ;  H11  -    C5 
 21    45   2    0.833     0.000     0.000      0.2486       0.0768700     ;  C12  -    H5 
 21    46   2    0.833     0.000     0.000      0.2486       0.0768700     ;  C12  -    H5 
 22    44   2    0.833     0.000     0.000      0.2519       0.0867000     ;  H12  -    C5 
; other within 5-ring
 20    45   2    1.000     0.000     0.000      0.1639       0.0656900     ;  H11  -    H5 
 20    46   2    1.000     0.000     0.000      0.1639       0.0656900     ;  H11  -    H5 
 22    45   2    1.000     0.000     0.000      0.1639       0.0656900     ;  H12  -    H5 
 22    46   2    1.000     0.000     0.000      0.1639       0.0656900     ;  H12  -    H5 
; LJ intra within chain
 14    29   2    1.000     0.000     0.000      0.1639       0.0656900     ;  H7   -    HT 
 14    30   2    1.000     0.000     0.000      0.1639       0.0656900     ;  H7   -    HT 
 14    31   2    1.000     0.000     0.000      0.1639       0.0656900     ;  H7   -    HT 
 14    33   2    1.000     0.000     0.000      0.1639       0.0656900     ;  H7   -    HT 
 14    34   2    1.000     0.000     0.000      0.1639       0.0656900     ;  H7   -    HT 
 14    35   2    1.000     0.000     0.000      0.1639       0.0656900     ;  H7   -    HT 
 14    37   2    1.000     0.000     0.000      0.1639       0.0656900     ;  H7   -    HT 
 14    38   2    1.000     0.000     0.000      0.1639       0.0656900     ;  H7   -    HT 
 14    39   2    1.000     0.000     0.000      0.1639       0.0656900     ;  H7   -    HT 
 14    41   2    1.000     0.000     0.000      0.1639       0.0656900     ;  H7   -    HT 
 14    42   2    1.000     0.000     0.000      0.1639       0.0656900     ;  H7   -    HT 
 14    43   2    1.000     0.000     0.000      0.1639       0.0656900     ;  H7   -    HT 
 14    45   2    1.000     0.000     0.000      0.1639       0.0656900     ;  H7   -    H5 
 14    46   2    1.000     0.000     0.000      0.1639       0.0656900     ;  H7   -    H5 
 16    29   2    1.000     0.000     0.000      0.1639       0.0656900     ;  H8   -    HT 
 16    30   2    1.000     0.000     0.000      0.1639       0.0656900     ;  H8   -    HT 
 16    31   2    1.000     0.000     0.000      0.1639       0.0656900     ;  H8   -    HT 
 16    33   2    1.000     0.000     0.000      0.1639       0.0656900     ;  H8   -    HT 
 16    34   2    1.000     0.000     0.000      0.1639       0.0656900     ;  H8   -    HT 
 16    35   2    1.000     0.000     0.000      0.1639       0.0656900     ;  H8   -    HT 
 16    37   2    1.000     0.000     0.000      0.1639       0.0656900     ;  H8   -    HT 
 16    38   2    1.000     0.000     0.000      0.1639       0.0656900     ;  H8   -    HT 
 16    39   2    1.000     0.000     0.000      0.1639       0.0656900     ;  H8   -    HT 
 16    41   2    1.000     0.000     0.000      0.1639       0.0656900     ;  H8   -    HT 
 16    42   2    1.000     0.000     0.000      0.1639       0.0656900     ;  H8   -    HT 
 16    43   2    1.000     0.000     0.000      0.1639       0.0656900     ;  H8   -    HT 
 16    45   2    1.000     0.000     0.000      0.1639       0.0656900     ;  H8   -    H5 
 16    46   2    1.000     0.000     0.000      0.1639       0.0656900     ;  H8   -    H5 
 20    29   2    1.000     0.000     0.000      0.1639       0.0656900     ;  H11  -    HT 
 20    30   2    1.000     0.000     0.000      0.1639       0.0656900     ;  H11  -    HT 
 20    31   2    1.000     0.000     0.000      0.1639       0.0656900     ;  H11  -    HT 
 20    33   2    1.000     0.000     0.000      0.1639       0.0656900     ;  H11  -    HT 
 20    34   2    1.000     0.000     0.000      0.1639       0.0656900     ;  H11  -    HT 
 20    35   2    1.000     0.000     0.000      0.1639       0.0656900     ;  H11  -    HT 
 20    37   2    1.000     0.000     0.000      0.1639       0.0656900     ;  H11  -    HT 
 20    38   2    1.000     0.000     0.000      0.1639       0.0656900     ;  H11  -    HT 
 20    39   2    1.000     0.000     0.000      0.1639       0.0656900     ;  H11  -    HT 
 20    41   2    1.000     0.000     0.000      0.1639       0.0656900     ;  H11  -    HT 
 20    42   2    1.000     0.000     0.000      0.1639       0.0656900     ;  H11  -    HT 
 20    43   2    1.000     0.000     0.000      0.1639       0.0656900     ;  H11  -    HT 
 22    29   2    1.000     0.000     0.000      0.1639       0.0656900     ;  H12  -    HT 
 22    30   2    1.000     0.000     0.000      0.1639       0.0656900     ;  H12  -    HT 
 22    31   2    1.000     0.000     0.000      0.1639       0.0656900     ;  H12  -    HT 
 22    33   2    1.000     0.000     0.000      0.1639       0.0656900     ;  H12  -    HT 
 22    34   2    1.000     0.000     0.000      0.1639       0.0656900     ;  H12  -    HT 
 22    35   2    1.000     0.000     0.000      0.1639       0.0656900     ;  H12  -    HT 
 22    37   2    1.000     0.000     0.000      0.1639       0.0656900     ;  H12  -    HT 
 22    38   2    1.000     0.000     0.000      0.1639       0.0656900     ;  H12  -    HT 
 22    39   2    1.000     0.000     0.000      0.1639       0.0656900     ;  H12  -    HT 
 22    41   2    1.000     0.000     0.000      0.1639       0.0656900     ;  H12  -    HT 
 22    42   2    1.000     0.000     0.000      0.1639       0.0656900     ;  H12  -    HT 
 22    43   2    1.000     0.000     0.000      0.1639       0.0656900     ;  H12  -    HT 
 22    48   2    1.000     0.000     0.000      0.1800       0.0656900     ;  H12  -    HT 
 22    49   2    1.000     0.000     0.000      0.1800       0.0656900     ;  H12  -    HT 
 22    50   2    1.000     0.000     0.000      0.1800       0.0656900     ;  H12  -    HT 
 27    45   2    1.000     0.000     0.000      0.1639       0.0656900     ;  H15  -    H5 
 27    46   2    1.000     0.000     0.000      0.1639       0.0656900     ;  H15  -    H5 
 27    48   2    1.000     0.000     0.000      0.1800       0.0656900     ;  H15  -    HT 
 27    49   2    1.000     0.000     0.000      0.1800       0.0656900     ;  H15  -    HT 
 27    50   2    1.000     0.000     0.000      0.1800       0.0656900     ;  H15  -    HT 
 41    45   2    1.000     0.000     0.000      0.1639       0.0656900     ;  HT3  -    H5 
 41    46   2    1.000     0.000     0.000      0.1639       0.0656900     ;  HT3  -    H5 
 42    45   2    1.000     0.000     0.000      0.1639       0.0656900     ;  HT3  -    H5 
 42    46   2    1.000     0.000     0.000      0.1639       0.0656900     ;  HT3  -    H5 
 43    45   2    1.000     0.000     0.000      0.1639       0.0656900     ;  HT3  -    H5 
 43    46   2    1.000     0.000     0.000      0.1639       0.0656900     ;  HT3  -    H5 
 45    48   2    1.000     0.000     0.000      0.1800       0.0656900     ;  H51  -    HT 
 45    49   2    1.000     0.000     0.000      0.1800       0.0656900     ;  H51  -    HT 
 45    50   2    1.000     0.000     0.000      0.1800       0.0656900     ;  H51  -    HT 
 45    52   2    1.000     0.000     0.000      0.1354       0.0656900     ;  H51  -    HZ 
 46    48   2    1.000     0.000     0.000      0.1800       0.0656900     ;  H51  -    HT 
 46    49   2    1.000     0.000     0.000      0.1800       0.0656900     ;  H51  -    HT 
 46    50   2    1.000     0.000     0.000      0.1800       0.0656900     ;  H51  -    HT 
 46    52   2    1.000     0.000     0.000      0.1354       0.0656900     ;  H51  -    HZ 
 
; Exclusions from default nonbonded
[ exclusions ]
; ai        aj
     1     2
     1     3
     1     4
     1     5
     1     6
     1     7
     1     8
     1     9
     1    10
     1    11
     1    12
     1    13
     1    14
     1    15
     1    16
     1    17
     1    18
     1    19
     1    20
     1    21
     1    22
     1    23
     1    24
     1    25
     1    26
     1    27
     1    28
     1    29
     1    30
     1    31
     1    32
     1    33
     1    34
     1    35
     1    36
     1    37
     1    38
     1    39
     1    40
     1    41
     1    42
     1    43
     1    44
     1    45
     1    46
     1    47
     1    48
     1    49
     1    50
     1    51
     1    52
     2     3
     2     4
     2     5
     2     6
     2     7
     2     8
     2     9
     2    10
     2    11
     2    12
     2    13
     2    14
     2    15
     2    16
     2    17
     2    18
     2    19
     2    20
     2    21
     2    22
     2    23
     2    24
     2    25
     2    26
     2    27
     2    28
     2    29
     2    30
     2    31
     2    32
     2    33
     2    34
     2    35
     2    36
     2    37
     2    38
     2    39
     2    40
     2    41
     2    42
     2    43
     2    44
     2    45
     2    46
     2    47
     2    48
     2    49
     2    50
     2    51
     2    52
     3     4
     3     5
     3     6
     3     7
     3     8
     3     9
     3    10
     3    11
     3    12
     3    13
     3    14
     3    15
     3    16
     3    17
     3    18
     3    19
     3    20
     3    21
     3    22
     3    23
     3    24
     3    25
     3    26
     3    27
     3    28
     3    29
     3    30
     3    31
     3    32
     3    33
     3    34
     3    35
     3    36
     3    37
     3    38
     3    39
     3    40
     3    41
     3    42
     3    43
     3    44
     3    45
     3    46
     3    47
     3    48
     3    49
     3    50
     3    51
     3    52
     4     5
     4     6
     4     7
     4     8
     4     9
     4    10
     4    11
     4    12
     4    13
     4    14
     4    15
     4    16
     4    17
     4    18
     4    19
     4    20
     4    21
     4    22
     4    23
     4    24
     4    25
     4    26
     4    27
     4    28
     4    29
     4    30
     4    31
     4    32
     4    33
     4    34
     4    35
     4    36
     4    37
     4    38
     4    39
     4    40
     4    41
     4    42
     4    43
     4    44
     4    45
     4    46
     4    47
     4    48
     4    49
     4    50
     4    51
     4    52
     5     6
     5     7
     5     8
     5     9
     5    10
     5    11
     5    12
     5    13
     5    14
     5    15
     5    16
     5    17
     5    18
     5    19
     5    20
     5    21
     5    22
     5    23
     5    24
     5    25
     5    26
     5    27
     5    28
     5    29
     5    30
     5    31
     5    32
     5    33
     5    34
     5    35
     5    36
     5    37
     5    38
     5    39
     5    40
     5    41
     5    42
     5    43
     5    44
     5    45
     5    46
     5    47
     5    48
     5    49
     5    50
     5    51
     5    52
     6     7
     6     8
     6     9
     6    10
     6    11
     6    12
     6    13
     6    14
     6    15
     6    16
     6    17
     6    18
     6    19
     6    20
     6    21
     6    22
     6    23
     6    24
     6    25
     6    26
     6    27
     6    28
     6    29
     6    30
     6    31
     6    32
     6    33
     6    34
     6    35
     6    36
     6    37
     6    38
     6    39
     6    40
     6    41
     6    42
     6    43
     6    44
     6    45
     6    46
     6    47
     6    48
     6    49
     6    50
     6    51
     6    52
     7     8
     7     9
     7    10
     7    11
     7    12
     7    13
     7    14
     7    15
     7    16
     7    17
     7    18
     7    19
     7    20
     7    21
     7    22
     7    23
     7    24
     7    25
     7    26
     7    27
     7    28
     7    29
     7    30
     7    31
     7    32
     7    33
     7    34
     7    35
     7    36
     7    37
     7    38
     7    39
     7    40
     7    41
     7    42
     7    43
     7    44
     7    45
     7    46
     7    47
     7    48
     7    49
     7    50
     7    51
     7    52
     8     9
     8    10
     8    11
     8    12
     8    13
     8    14
     8    15
     8    16
     8    17
     8    18
     8    19
     8    20
     8    21
     8    22
     8    23
     8    24
     8    25
     8    26
     8    27
     8    28
     8    29
     8    30
     8    31
     8    32
     8    33
     8    34
     8    35
     8    36
     8    37
     8    38
     8    39
     8    40
     8    41
     8    42
     8    43
     8    44
     8    45
     8    46
     8    47
     8    48
     8    49
     8    50
     8    51
     8    52
     9    10
     9    11
     9    12
     9    13
     9    14
     9    15
     9    16
     9    17
     9    18
     9    19
     9    20
     9    21
     9    22
     9    23
     9    24
     9    25
     9    26
     9    27
     9    28
     9    29
     9    30
     9    31
     9    32
     9    33
     9    34
     9    35
     9    36
     9    37
     9    38
     9    39
     9    40
     9    41
     9    42
     9    43
     9    44
     9    45
     9    46
     9    47
     9    48
     9    49
     9    50
     9    51
     9    52
    10    11
    10    12
    10    13
    10    14
    10    15
    10    16
    10    17
    10    18
    10    19
    10    20
    10    21
    10    22
    10    23
    10    24
    10    25
    10    26
    10    27
    10    28
    10    29
    10    30
    10    31
    10    32
    10    33
    10    34
    10    35
    10    36
    10    37
    10    38
    10    39
    10    40
    10    41
    10    42
    10    43
    10    44
    10    45
    10    46
    10    47
    10    48
    10    49
    10    50
    10    51
    10    52
    11    12
    11    13
    11    14
    11    15
    11    16
    11    17
    11    18
    11    19
    11    20
    11    21
    11    22
    11    23
    11    24
    11    25
    11    26
    11    27
    11    28
    11    29
    11    30
    11    31
    11    32
    11    33
    11    34
    11    35
    11    36
    11    37
    11    38
    11    39
    11    40
    11    41
    11    42
    11    43
    11    44
    11    45
    11    46
    11    47
    11    48
    11    49
    11    50
    11    51
    11    52
    12    13
    12    14
    12    15
    12    16
    12    17
    12    18
    12    19
    12    20
    12    21
    12    22
    12    23
    12    24
    12    25
    12    26
    12    27
    12    28
    12    29
    12    30
    12    31
    12    32
    12    33
    12    34
    12    35
    12    36
    12    37
    12    38
    12    39
    12    40
    12    41
    12    42
    12    43
    12    44
    12    45
    12    46
    12    47
    12    48
    12    49
    12    50
    12    51
    12    52
    13    14
    13    15
    13    16
    13    17
    13    18
    13    19
    13    20
    13    21
    13    22
    13    23
    13    24
    13    25
    13    26
    13    27
    13    28
    13    29
    13    30
    13    31
    13    32
    13    33
    13    34
    13    35
    13    36
    13    37
    13    38
    13    39
    13    40
    13    41
    13    42
    13    43
    13    44
    13    45
    13    46
    13    47
    13    48
    13    49
    13    50
    13    51
    13    52
    14    15
    14    16
    14    17
    14    18
    14    19
    14    20
    14    21
    14    22
    14    23
    14    24
    14    25
    14    26
    14    27
    14    28
    14    29
    14    30
    14    31
    14    32
    14    33
    14    34
    14    35
    14    36
    14    37
    14    38
    14    39
    14    40
    14    41
    14    42
    14    43
    14    44
    14    45
    14    46
    14    47
    14    48
    14    49
    14    50
    14    51
    14    52
    15    16
    15    17
    15    18
    15    19
    15    20
    15    21
    15    22
    15    23
    15    24
    15    25
    15    26
    15    27
    15    28
    15    29
    15    30
    15    31
    15    32
    15    33
    15    34
    15    35
    15    36
    15    37
    15    38
    15    39
    15    40
    15    41
    15    42
    15    43
    15    44
    15    45
    15    46
    15    47
    15    48
    15    49
    15    50
    15    51
    15    52
    16    17
    16    18
    16    19
    16    20
    16    21
    16    22
    16    23
    16    24
    16    25
    16    26
    16    27
    16    28
    16    29
    16    30
    16    31
    16    32
    16    33
    16    34
    16    35
    16    36
    16    37
    16    38
    16    39
    16    40
    16    41
    16    42
    16    43
    16    44
    16    45
    16    46
    16    47
    16    48
    16    49
    16    50
    16    51
    16    52
    17    18
    17    19
    17    20
    17    21
    17    22
    17    23
    17    24
    17    25
    17    26
    17    27
    17    28
    17    29
    17    30
    17    31
    17    32
    17    33
    17    34
    17    35
    17    36
    17    37
    17    38
    17    39
    17    40
    17    41
    17    42
    17    43
    17    44
    17    45
    17    46
    17    47
    17    48
    17    49
    17    50
    17    51
    17    52
    18    19
    18    20
    18    21
    18    22
    18    23
    18    24
    18    25
    18    26
    18    27
    18    28
    18    29
    18    30
    18    31
    18    32
    18    33
    18    34
    18    35
    18    36
    18    37
    18    38
    18    39
    18    40
    18    41
    18    42
    18    43
    18    44
    18    45
    18    46
    18    47
    18    48
    18    49
    18    50
    18    51
    18    52
    19    20
    19    21
    19    22
    19    23
    19    24
    19    25
    19    26
    19    27
    19    28
    19    29
    19    30
    19    31
    19    32
    19    33
    19    34
    19    35
    19    36
    19    37
    19    38
    19    39
    19    40
    19    41
    19    42
    19    43
    19    44
    19    45
    19    46
    19    47
    19    48
    19    49
    19    50
    19    51
    19    52
    20    21
    20    22
    20    23
    20    24
    20    25
    20    26
    20    27
    20    28
    20    29
    20    30
    20    31
    20    32
    20    33
    20    34
    20    35
    20    36
    20    37
    20    38
    20    39
    20    40
    20    41
    20    42
    20    43
    20    44
    20    45
    20    46
    20    47
    20    48
    20    49
    20    50
    20    51
    20    52
    21    22
    21    23
    21    24
    21    25
    21    26
    21    27
    21    28
    21    29
    21    30
    21    31
    21    32
    21    33
    21    34
    21    35
    21    36
    21    37
    21    38
    21    39
    21    40
    21    41
    21    42
    21    43
    21    44
    21    45
    21    46
    21    47
    21    48
    21    49
    21    50
    21    51
    21    52
    22    23
    22    24
    22    25
    22    26
    22    27
    22    28
    22    29
    22    30
    22    31
    22    32
    22    33
    22    34
    22    35
    22    36
    22    37
    22    38
    22    39
    22    40
    22    41
    22    42
    22    43
    22    44
    22    45
    22    46
    22    47
    22    48
    22    49
    22    50
    22    51
    22    52
    23    24
    23    25
    23    26
    23    27
    23    28
    23    29
    23    30
    23    31
    23    32
    23    33
    23    34
    23    35
    23    36
    23    37
    23    38
    23    39
    23    40
    23    41
    23    42
    23    43
    23    44
    23    45
    23    46
    23    47
    23    48
    23    49
    23    50
    23    51
    23    52
    24    25
    24    26
    24    27
    24    28
    24    29
    24    30
    24    31
    24    32
    24    33
    24    34
    24    35
    24    36
    24    37
    24    38
    24    39
    24    40
    24    41
    24    42
    24    43
    24    44
    24    45
    24    46
    24    47
    24    48
    24    49
    24    50
    24    51
    24    52
    25    26
    25    27
    25    28
    25    29
    25    30
    25    31
    25    32
    25    33
    25    34
    25    35
    25    36
    25    37
    25    38
    25    39
    25    40
    25    41
    25    42
    25    43
    25    44
    25    45
    25    46
    25    47
    25    48
    25    49
    25    50
    25    51
    25    52
    26    27
    26    28
    26    29
    26    30
    26    31
    26    32
    26    33
    26    34
    26    35
    26    36
    26    37
    26    38
    26    39
    26    40
    26    41
    26    42
    26    43
    26    44
    26    45
    26    46
    26    47
    26    48
    26    49
    26    50
    26    51
    26    52
    27    28
    27    29
    27    30
    27    31
    27    32
    27    33
    27    34
    27    35
    27    36
    27    37
    27    38
    27    39
    27    40
    27    41
    27    42
    27    43
    27    44
    27    45
    27    46
    27    47
    27    48
    27    49
    27    50
    27    51
    27    52
    28    29
    28    30
    28    31
    28    32
    28    33
    28    34
    28    35
    28    36
    28    37
    28    38
    28    39
    28    40
    28    41
    28    42
    28    43
    28    44
    28    45
    28    46
    28    47
    28    48
    28    49
    28    50
    28    51
    28    52
    29    30
    29    31
    29    32
    29    33
    29    34
    29    35
    29    36
    29    37
    29    38
    29    39
    29    40
    29    41
    29    42
    29    43
    29    44
    29    45
    29    46
    29    47
    29    48
    29    49
    29    50
    29    51
    29    52
    30    31
    30    32
    30    33
    30    34
    30    35
    30    36
    30    37
    30    38
    30    39
    30    40
    30    41
    30    42
    30    43
    30    44
    30    45
    30    46
    30    47
    30    48
    30    49
    30    50
    30    51
    30    52
    31    32
    31    33
    31    34
    31    35
    31    36
    31    37
    31    38
    31    39
    31    40
    31    41
    31    42
    31    43
    31    44
    31    45
    31    46
    31    47
    31    48
    31    49
    31    50
    31    51
    31    52
    32    33
    32    34
    32    35
    32    36
    32    37
    32    38
    32    39
    32    40
    32    41
    32    42
    32    43
    32    44
    32    45
    32    46
    32    47
    32    48
    32    49
    32    50
    32    51
    32    52
    33    34
    33    35
    33    36
    33    37
    33    38
    33    39
    33    40
    33    41
    33    42
    33    43
    33    44
    33    45
    33    46
    33    47
    33    48
    33    49
    33    50
    33    51
    33    52
    34    35
    34    36
    34    37
    34    38
    34    39
    34    40
    34    41
    34    42
    34    43
    34    44
    34    45
    34    46
    34    47
    34    48
    34    49
    34    50
    34    51
    34    52
    35    36
    35    37
    35    38
    35    39
    35    40
    35    41
    35    42
    35    43
    35    44
    35    45
    35    46
    35    47
    35    48
    35    49
    35    50
    35    51
    35    52
    36    37
    36    38
    36    39
    36    40
    36    41
    36    42
    36    43
    36    44
    36    45
    36    46
    36    47
    36    48
    36    49
    36    50
    36    51
    36    52
    37    38
    37    39
    37    40
    37    41
    37    42
    37    43
    37    44
    37    45
    37    46
    37    47
    37    48
    37    49
    37    50
    37    51
    37    52
    38    39
    38    40
    38    41
    38    42
    38    43
    38    44
    38    45
    38    46
    38    47
    38    48
    38    49
    38    50
    38    51
    38    52
    39    40
    39    41
    39    42
    39    43
    39    44
    39    45
    39    46
    39    47
    39    48
    39    49
    39    50
    39    51
    39    52
    40    41
    40    42
    40    43
    40    44
    40    45
    40    46
    40    47
    40    48
    40    49
    40    50
    40    51
    40    52
    41    42
    41    43
    41    44
    41    45
    41    46
    41    47
    41    48
    41    49
    41    50
    41    51
    41    52
    42    43
    42    44
    42    45
    42    46
    42    47
    42    48
    42    49
    42    50
    42    51
    42    52
    43    44
    43    45
    43    46
    43    47
    43    48
    43    49
    43    50
    43    51
    43    52
    44    45
    44    46
    44    47
    44    48
    44    49
    44    50
    44    51
    44    52
    45    46
    45    47
    45    48
    45    49
    45    50
    45    51
    45    52
    46    47
    46    48
    46    49
    46    50
    46    51
    46    52
    47    48
    47    49
    47    50
    47    51
    47    52
    48    49
    48    50
    48    51
    48    52
    49    50
    49    51
    49    52
    50    51
    50    52
    51    52
