;
; Daniele Padula, daniele.padula@unisi.it
; RET 11-cis protonated Schiff base (rPSB) include topology.
; Parameterised at MP2/6-31G*
;
 [ moleculetype ]
; Name     nrexcl
  RET        3
 
 [ atoms ]
; nr  type  resnr residue  atom  cgnr    charge     mass
   1   C1    1    RET      C1    1     0.671828   12.0110
   2   C2    1    RET      C2    2    -0.217668   12.0110
   3   H2    1    RET      H21   3     0.050670    1.0079
   4   H2    1    RET      H22   4     0.050670    1.0079
   5   C3    1    RET      C3    5     0.075694   12.0110
   6   H3    1    RET      H31   6     0.018903    1.0079
   7   H3    1    RET      H32   7     0.018903    1.0079
   8   C4    1    RET      C4    8    -0.278879   12.0110
   9   H4    1    RET      H41   9     0.088546    1.0079
   10  H4    1    RET      H42   10    0.088546    1.0079
   11  C5    1    RET      C5    11    0.386458   12.0110
   12  C6    1    RET      C6    12   -0.521185   12.0110
   13  C7    1    RET      C7    13    0.227150   12.0110
   14  H7    1    RET      H7    14    0.101459    1.0079
   15  C8    1    RET      C8    15   -0.466486   12.0110
   16  H8    1    RET      H8    16    0.194572    1.0079
   17  C9    1    RET      C9    17    0.404354   12.0110
   18 C10    1    RET     C10    18   -0.455269   12.0110
   19 H10    1    RET     H10    19    0.189577    1.0079
   20 C11    1    RET     C11    20    0.219509   12.0110
   21 H11    1    RET     H11    21    0.143946    1.0079
   22 C12    1    RET     C12    22   -0.635779   12.0110
   23 H12    1    RET     H12    23    0.202968    1.0079
   24 C13    1    RET     C13    24    0.740405   12.0110
   25 C14    1    RET     C14    25   -0.751946   12.0110
   26 H14    1    RET     H14    26    0.246358    1.0079
   27 C15    1    RET     C15    27    0.305730   12.0110
   28 H15    1    RET     H15    28    0.176904    1.0079
   29 CT1    1    RET     CT1    29   -0.556897   12.0110
   30 HT1    1    RET     HT11   30    0.129067    1.0079
   31 HT1    1    RET     HT12   31    0.129067    1.0079
   32 HT1    1    RET     HT13   32    0.129067    1.0079
   33 CT1    1    RET     CT2    33   -0.556897   12.0110
   34 HT1    1    RET     HT21   34    0.129067    1.0079
   35 HT1    1    RET     HT22   35    0.129067    1.0079
   36 HT1    1    RET     HT23   36    0.129067    1.0079
   37 CT2    1    RET     CT3    37   -0.494588   12.0110
   38 HT2    1    RET     HT31   38    0.134713    1.0079
   39 HT2    1    RET     HT32   39    0.134713    1.0079
   40 HT2    1    RET     HT33   40    0.134713    1.0079
   41 CT3    1    RET     CT4    41   -0.356442   12.0110
   42 HT3    1    RET     HT41   42    0.117005    1.0079
   43 HT3    1    RET     HT42   43    0.117005    1.0079
   44 HT3    1    RET     HT43   44    0.117005    1.0079
   45 CT4    1    RET     CT5    45   -0.480967   12.0110
   46 HT4    1    RET     HT51   46    0.142602    1.0079
   47 HT4    1    RET     HT52   47    0.142602    1.0079
   48 HT4    1    RET     HT53   48    0.142602    1.0079
   49 CT5    1    RET     CT6    49   -0.190827   12.0110
   50 HT5    1    RET     HT61   50    0.126982    1.0079
   51 HT5    1    RET     HT62   51    0.126982    1.0079
   52 HT5    1    RET     HT63   52    0.126982    1.0079
   53  NZ    1    RET      NZ    53   -0.347217   14.0070
   54  HZ    1    RET      HZ    54    0.369592    1.0079
 
; Stretchings
[ bonds ]
; ring C-C
      1     2   1     0.1535     202708.461     ;        1        C1-C2  
      2     5   1     0.1520     239666.966     ;        2        C2-C3  
      5     8   1     0.1523     230635.415     ;        3        C3-C4  
      8    11   1     0.1509     213095.671     ;        4        C4-C5  
     11    12   1     0.1366     407759.139     ;        5        C5=C6  
      1    12   1     0.1532     204151.744     ;        6        C1-C6  
; chain C-C
     12    13   1     0.1458     250346.176     ;        7        C6-C7  
     13    15   1     0.1365     393860.997     ;        8        C7=C8  
     15    17   1     0.1439     266358.943     ;        9        C8-C9  
     17    18   1     0.1385     381411.293     ;        10       C9=C10 
     18    20   1     0.1416     327541.303     ;        11       C10=C11
     20    22   1     0.1386     374699.240     ;        12       C11=C12
     22    24   1     0.1421     314979.103     ;        13       C12-C13
     24    25   1     0.1394     363191.188     ;        14       C13=C14
     25    27   1     0.1397     356647.372     ;        15       C14=C15
     27    53   1     0.1323     455367.600     ;        16       C15=NZ 
; ring C-CH3
      1    29   1     0.1537     197167.986     ;        17       C1-CT1 
      1    33   1     0.1536     197167.986     ;        18       C1-CT1 
     11    37   1     0.1507     234621.011     ;        19       C5-CT2 
; chain C-CH3
     17    41   1     0.1504     206140.301     ;        20       C9-CT3 
     24    45   1     0.1504     204701.915     ;        21       C13-CT4
     49    53   1     0.1462     254174.433     ;        22       CT5-NZ 
; ring C-H
      2     3   1     0.1098     316912.410     ;        23       C2-H2  
      2     4   1     0.1099     316912.410     ;        24       C2-H2  
      5     6   1     0.1095     322844.359     ;        25       C3-H3  
      5     7   1     0.1096     322844.359     ;        26       C3-H3  
      8     9   1     0.1098     313727.585     ;        27       C4-H4  
      8    10   1     0.1102     313727.585     ;        28       C4-H4  
; chain C-H
     13    14   1     0.1090     337836.150     ;        29       C7-H7  
     15    16   1     0.1089     339798.509     ;        30       C8-H8  
     18    19   1     0.1084     351332.105     ;        31       C10-H10
     20    21   1     0.1088     344164.299     ;        32       C11-H11
     22    23   1     0.1089     335887.129     ;        33       C12-H12
     25    26   1     0.1090     335845.882     ;        34       C14-H14
     27    28   1     0.1087     348305.992     ;        35       C15-H15
     53    54   1     0.1019     425768.811     ;        36       NZ-HZ  
; methyl C-H
     29    30   1     0.1095     327067.297     ;        37       CT1-HT1
     29    31   1     0.1093     327067.297     ;        38       CT1-HT1
     29    32   1     0.1096     327067.297     ;        39       CT1-HT1
     33    34   1     0.1095     327067.297     ;        40       CT1-HT1
     33    35   1     0.1096     327067.297     ;        41       CT1-HT1
     33    36   1     0.1095     327067.297     ;        42       CT1-HT1
     37    38   1     0.1095     326085.717     ;        43       CT2-HT2
     37    39   1     0.1091     326085.717     ;        44       CT2-HT2
     37    40   1     0.1098     326085.717     ;        45       CT2-HT2
     41    42   1     0.1089     331661.211     ;        46       CT3-HT3
     41    43   1     0.1094     331661.211     ;        47       CT3-HT3
     41    44   1     0.1095     331661.211     ;        48       CT3-HT3
     45    46   1     0.1090     331844.486     ;        49       CT4-HT4
     45    47   1     0.1093     331844.486     ;        50       CT4-HT4
     45    48   1     0.1095     331844.486     ;        51       CT4-HT4
     49    50   1     0.1092     336400.233     ;        52       CT5-HT5
     49    51   1     0.1090     336400.233     ;        53       CT5-HT5
     49    52   1     0.1092     336400.233     ;        54       CT5-HT5
 
; Bendings
[ angles ]
; C-C-C ring
      1    2    5   1    112.55     703.7366     ;        55       C1-C2-C3  
      2    5    8   1    109.40     711.7095     ;        56       C2-C3-C4  
      5    8   11   1    113.85     553.0627     ;        57       C3-C4-C5  
      8   11   12   1    121.88     470.0349     ;        58       C4-C5=C6  
      1   12   11   1    123.16     314.6272     ;        59       C1-C6=C5  
      2    1   12   1    110.31     622.8590     ;        60       C6-C1-C2  
; C-C-C chain
      1   12   13   1    114.26     720.1914     ;        61       C1-C6-C7  
     11   12   13   1    122.52     533.8069     ;        62       C5=C6-C7  
     12   13   15   1    125.70     632.9025     ;        63       C6-C7=C8  
     13   15   17   1    124.92     687.6649     ;        64       C7=C8-C9  
     15   17   18   1    117.14     600.2740     ;        65       C8-C9=C10 
     17   18   20   1    125.07     585.3181     ;        66       C9=C10=C11
     18   20   22   1    130.75     644.6869     ;        67       C10=C11=C1
     20   22   24   1    130.94     306.6145     ;        68       C11=C12-C1
     22   24   25   1    116.47     751.0491     ;        69       C12-C13=C1
     24   25   27   1    125.23     518.6433     ;        70       C13=C14=C1
     25   27   53   1    123.78     865.6985     ;        71       C14=C15=NZ
; C-C-CH3 ring
      2    1   29   1    110.20     707.7191     ;        72       CT1-C1-C2 
      2    1   33   1    107.71     707.7191     ;        73       CT1-C1-C2 
     12    1   29   1    109.76     766.4735     ;        74       CT1-C1-C6 
     12    1   33   1    109.91     766.4735     ;        75       CT1-C1-C6 
      8   11   37   1    113.64     689.0725     ;        76       C4-C5-CT2 
     12   11   37   1    124.48     504.1295     ;        77       CT2-C5=C6 
     29    1   33   1    108.91     717.1653     ;        78       CT1-C1-CT1
; C-C-CH3 chain
     15   17   41   1    118.76     320.0906     ;        79       C8-C9-CT3 
     18   17   41   1    124.10     467.3327     ;        80       CT3-C9=C10
     22   24   45   1    121.44     450.5133     ;        81       C12-C13-CT
     25   24   45   1    122.09     452.9250     ;        82       CT4-C13=C1
     27   53   49   1    125.22     656.0954     ;        83       C15=NZ-CT5
; C-C-H ring
      1    2    3   1    108.67     421.5301     ;        84       C1-C2-H2  
      1    2    4   1    108.77     421.5301     ;        85       C1-C2-H2  
      3    2    5   1    111.20     387.0657     ;        86       C3-C2-H2  
      4    2    5   1    108.78     387.0657     ;        87       C3-C2-H2  
      2    5    6   1    110.41     398.4162     ;        88       C2-C3-H3  
      2    5    7   1    110.64     398.4162     ;        89       C2-C3-H3  
      6    5    8   1    109.72     404.0026     ;        90       C4-C3-H3  
      7    5    8   1    110.06     404.0026     ;        91       C4-C3-H3  
      5    8    9   1    110.43     405.9591     ;        92       C3-C4-H4  
      5    8   10   1    109.79     405.9591     ;        93       C3-C4-H4  
      9    8   11   1    108.89     399.3541     ;        94       C5-C4-H4  
     10    8   11   1    108.08     399.3541     ;        95       C5-C4-H4  
; C-C-H chain
     12   13   14   1    116.13     345.3598     ;        96       C6-C7-H7  
     14   13   15   1    118.05     398.1736     ;        97       C8=C7-H7  
     13   15   16   1    118.22     391.0726     ;        98       C7=C8-H8  
     16   15   17   1    116.84     297.5902     ;        99       C9-C8-H8  
     17   18   19   1    115.70     333.7802     ;        100      C9=C10-H10
     19   18   20   1    119.20     357.8761     ;        101      C11-C10-H1
     18   20   21   1    115.94     369.6051     ;        102      C10=C11-H1
     21   20   22   1    113.26     388.2209     ;        103      C12=C11-H1
     20   22   23   1    114.44     435.0898     ;        104      C11=C12-H1
     23   22   24   1    114.60     328.1127     ;        105      C13=C12-H1
     24   25   26   1    117.74     318.5179     ;        106      C13=C14-H1
     26   25   27   1    117.03     404.9662     ;        107      C15=C14-H1
     25   27   28   1    121.60     319.4736     ;        108      C14=C15-H1
     28   27   53   1    114.62     395.1980     ;        109      NZ=C15-H15
     27   53   54   1    117.89     380.1757     ;        110      C15=NZ-HZ 
     49   53   54   1    116.89     354.5838     ;        111      CT5-NZ-HZ 
; C-C-H methyl
      1   29   30   1    111.67     384.5067     ;        112      C1-CT1-HT1
      1   29   31   1    111.62     384.5067     ;        113      C1-CT1-HT1
      1   29   32   1    109.88     384.5067     ;        114      C1-CT1-HT1
      1   33   34   1    112.21     384.5067     ;        115      C1-CT1-HT1
      1   33   35   1    109.71     384.5067     ;        116      C1-CT1-HT1
      1   33   36   1    110.77     384.5067     ;        117      C1-CT1-HT1
     11   37   38   1    109.50     379.5459     ;        118      C5-CT2-HT2
     11   37   39   1    113.06     379.5459     ;        119      C5-CT2-HT2
     11   37   40   1    111.00     379.5459     ;        120      C5-CT2-HT2
     17   41   42   1    113.30     423.2586     ;        121      C9-CT3-HT3
     17   41   43   1    110.33     423.2586     ;        122      C9-CT3-HT3
     17   41   44   1    109.92     423.2586     ;        123      C9-CT3-HT3
     24   45   46   1    112.96     433.0338     ;        124      C13-CT4-HT
     24   45   47   1    109.97     433.0338     ;        125      C13-CT4-HT
     24   45   48   1    110.55     433.0338     ;        126      C13-CT4-HT
     50   49   51   1    109.36     355.6563     ;        127      HT5-CT5-HT
     50   49   52   1    109.57     355.6563     ;        128      HT5-CT5-HT
     50   49   53   1    109.85     494.6452     ;        129      NZ-CT5-HT5
; H-C-H
      3    2    4   1    106.68     365.8541     ;        130      H2-C2-H2  
      6    5    7   1    106.57     369.8157     ;        131      H3-C3-H3  
      9    8   10   1    105.43     364.5659     ;        132      H4-C4-H4  
     30   29   31   1    107.77     358.5721     ;        133      HT1-CT1-HT
     30   29   32   1    107.32     358.5721     ;        134      HT1-CT1-HT
     31   29   32   1    108.43     358.5721     ;        135      HT1-CT1-HT
     34   33   35   1    107.63     358.5721     ;        136      HT1-CT1-HT
     34   33   36   1    108.21     358.5721     ;        137      HT1-CT1-HT
     35   33   36   1    108.16     358.5721     ;        138      HT1-CT1-HT
     38   37   39   1    108.33     361.4726     ;        139      HT2-CT2-HT
     38   37   40   1    106.49     361.4726     ;        140      HT2-CT2-HT
     39   37   40   1    108.22     361.4726     ;        141      HT2-CT2-HT
     42   41   43   1    108.17     359.5388     ;        142      HT3-CT3-HT
     42   41   44   1    107.48     359.5388     ;        143      HT3-CT3-HT
     43   41   44   1    107.43     359.5388     ;        144      HT3-CT3-HT
     46   45   47   1    107.43     361.0198     ;        145      HT4-CT4-HT
     46   45   48   1    107.83     361.0198     ;        146      HT4-CT4-HT
     47   45   48   1    107.91     361.0198     ;        147      HT4-CT4-HT
     51   49   52   1    109.37     355.6563     ;        148      HT5-CT5-HT
     51   49   53   1    108.82     494.6452     ;        149      NZ-CT5-HT5
     52   49   53   1    109.87     494.6452     ;        150      NZ-CT5-HT5
 
; Torsions
[ dihedrals ]
; --------------------------------
;        stiff dihedrals
; --------------------------------
; C-C-C-C   chain backbone
      8  11  12  13   2    180.0    101.963     ;     151     C4-C5=C6-C7         
; C-C-C-CH3 chain backbone
     37  11  12  13   2      0.0    101.963     ;     152     CT2-C5=C6-C7        
; missing coordinate: thanks JCTC reviewer!
     15  14  12  13   2      0.0    526.469     ;     153     
; starlike
     11   8  12  37   2      0.0    508.420     ;     154     C5-C4--C6--CT2       *
     12   1  11  13   2      0.0    141.680     ;     155     C6-C1--C5--C7        *
     17  13  16  15   2      0.0    712.666     ;     156     C8-H8--C7--C9        *
     17  15  18  41   2      0.0    485.879     ;     157     C9-C8--C10--CT3      *
     20  17  19  18   2      0.0    455.534     ;     158     C10-H10--C9--C1      *
     20  18  21  22   2      0.0    612.356     ;     159     HOOP                
     22  20  23  24   2      0.0    612.356     ;     160     HOOP                
     24  22  25  45   2      0.0    725.492     ;     161 
     27  24  26  25   2      0.0    340.081     ;     162     C14-H14--C13--C      *
     53  25  28  27   2      0.0    613.852     ;     163     C15-H14--C14--N      *
     54  27  49  53   2      0.0    286.358     ;     164     NZ-CT5--C15--HZ      *
; --------------------------------
; flexible dihedrals
; --------------------------------
; C-C-C-C   ring dihedrals
      1   2   5   8   1      0.00          0.651   3     ;     165     C1-C2-C3-C4         
      2   5   8  11   1      0.00          0.651   3     ;     166     C2-C3-C4-C5         
      5   8  11  12   1      0.00          0.651   3     ;     167     C3-C4-C5=C6         
      8  11  12   1   1      0.00          0.651   3     ;     168     C4-C5=C6-C1         
      2   1  12  11   1      0.00          0.651   3     ;     169     C5=C6-C1-C2         
     12   1   2   5   1      0.00          0.651   3     ;     170     C6-C1-C2-C3         
; C-C-C-CH3 ring dihedrals
     33   1   2   5   1      0.00          0.651   3     ;     171     CT1-C1-C2-C3        
     29   1  12  11   1      0.00          0.651   3     ;     172     CT1-C1-C6=C5        
     33   1  12  11   1      0.00          0.651   3     ;     173     CT1-C1-C6=C5        
     29   1  12  13   1      0.00          0.651   3     ;     174     CT1-C1-C6-C7        
     33   1  12  13   1      0.00          0.651   3     ;     175     CT1-C1-C6-C7        
      5   8  11  37   1      0.00          0.651   3     ;     176     C3-C4-C5-CT2        
     37  11  12   1   1      0.00          0.651   3     ;     177     C1-C6=C5-CT2        
      2   1  12  13   1      0.00          0.651   3     ;     178     C7-C6-C1-C2         
; C-C-C-H   ring dihedrals
     12   1   2   3   1      0.00          0.651   3     ;     179     C6-C1-C2-H2         
     12   1   2   4   1      0.00          0.651   3     ;     180     C6-C1-C2-H2         
      4   2   5   8   1      0.00          0.651   3     ;     181     C4-C3-C2-H2         
      3   2   5   8   1      0.00          0.651   3     ;     182     C4-C3-C2-H2         
      1   2   5   6   1      0.00          0.651   3     ;     183     C1-C2-C3-H3         
      1   2   5   7   1      0.00          0.651   3     ;     184     C1-C2-C3-H3         
      7   5   8  11   1      0.00          0.651   3     ;     185     C5-C4-C3-H3         
      6   5   8  11   1      0.00          0.651   3     ;     186     C5-C4-C3-H3         
      2   5   8   9   1      0.00          0.651   3     ;     187     C2-C3-C4-H4         
      2   5   8  10   1      0.00          0.651   3     ;     188     C2-C3-C4-H4         
      9   8  11  12   1      0.00          0.651   3     ;     189     C6=C5-C4-H4         
     10   8  11  12   1      0.00          0.651   3     ;     190     C6=C5-C4-H4         
; C-C-C-H   ring (methyls) dihedrals
     29   1   2   3   1      0.00          0.651   3     ;     191     CT1-C1-C2-H2        
     33   1   2   3   1      0.00          0.651   3     ;     192     CT1-C1-C2-H2        
     29   1   2   4   1      0.00          0.651   3     ;     193     CT1-C1-C2-H2        
     33   1   2   4   1      0.00          0.651   3     ;     194     CT1-C1-C2-H2        
      9   8  11  37   1      0.00          0.651   3     ;     195     CT2-C5-C4-H4        
     10   8  11  37   1      0.00          0.651   3     ;     196     CT2-C5-C4-H4        
; H-C-C-H   ring dihedrals
     29   1   2   5   1      0.00          0.651   3     ;     197     CT1-C1-C2-C3        
      3   2   5   6   1      0.00          0.651   3     ;     198     H3-C3-C2-H2         
      3   2   5   7   1      0.00          0.651   3     ;     199     H3-C3-C2-H2         
      4   2   5   6   1      0.00          0.651   3     ;     200     H3-C3-C2-H2         
      4   2   5   7   1      0.00          0.651   3     ;     201     H3-C3-C2-H2         
      6   5   8   9   1      0.00          0.651   3     ;     202     H4-C4-C3-H3         
      6   5   8  10   1      0.00          0.651   3     ;     203     H4-C4-C3-H3         
      7   5   8   9   1      0.00          0.651   3     ;     204     H4-C4-C3-H3         
      7   5   8  10   1      0.00          0.651   3     ;     205     H4-C4-C3-H3         
      2   1  29  30   1      0.00          0.651   3     ;     206     HT1-CT1-C1-C2       
      2   1  29  31   1      0.00          0.651   3     ;     207     HT1-CT1-C1-C2       
      2   1  29  32   1      0.00          0.651   3     ;     208     HT1-CT1-C1-C2       
      2   1  33  34   1      0.00          0.651   3     ;     209     HT1-CT1-C1-C2       
      2   1  33  35   1      0.00          0.651   3     ;     210     HT1-CT1-C1-C2       
      2   1  33  36   1      0.00          0.651   3     ;     211     HT1-CT1-C1-C2       
     12   1  29  30   1      0.00          0.651   3     ;     212     HT1-CT1-C1-C6       
     12   1  29  31   1      0.00          0.651   3     ;     213     HT1-CT1-C1-C6       
     12   1  29  32   1      0.00          0.651   3     ;     214     HT1-CT1-C1-C6       
     12   1  33  34   1      0.00          0.651   3     ;     215     HT1-CT1-C1-C6       
     12   1  33  35   1      0.00          0.651   3     ;     216     HT1-CT1-C1-C6       
     12   1  33  36   1      0.00          0.651   3     ;     217     HT1-CT1-C1-C6       
; methyl rotation
     33   1  29  30   1      0.00          0.651   3     ;     218     CT1-C1-CT1-HT1      
     33   1  29  31   1      0.00          0.651   3     ;     219     CT1-C1-CT1-HT1      
     33   1  29  32   1      0.00          0.651   3     ;     220     CT1-C1-CT1-HT1      
      8  11  37  38   1      0.00          0.651   3     ;     221     C4-C5-CT2-HT2       
      8  11  37  39   1      0.00          0.651   3     ;     222     C4-C5-CT2-HT2       
      8  11  37  40   1      0.00          0.651   3     ;     223     C4-C5-CT2-HT2       
     12  11  37  38   1      0.00          0.651   3     ;     224     HT2-CT2-C5=C6       
     12  11  37  39   1      0.00          0.651   3     ;     225     HT2-CT2-C5=C6       
     12  11  37  40   1      0.00          0.651   3     ;     226     HT2-CT2-C5=C6       
     18  17  41  42   1    180.00          2.000   3     ;     227     HT3-CT3-C9=C10      
     25  24  45  46   1    180.00          2.000   3     ;     228     HT4-CT4-C13=C14     
     50  49  53  27   1    180.00          2.000   3     ;     229     C15=NZ-CT5-HT5      
; C-C-C-C   chain backbone
; phi around C=C
; phi1
     12  13  15  17   1      0.00         25.698   0
     12  13  15  17   1      0.00          3.721   1     ;     231     C6-C7=C8-C9         
     12  13  15  17   1      0.00        -49.924   2     ;     232     C6-C7=C8-C9         
     12  13  15  17   1      0.00          7.068   3     ;     233     C6-C7=C8-C9         
     12  13  15  17   1      0.00         13.824   4     ;     234     C6-C7=C8-C9         
     12  13  15  17   1      0.00         -1.185   5     ;     235     C6-C7=C8-C9         
; phi2
     15  17  18  20   1      0.00         19.698   0
     15  17  18  20   1      0.00         -0.584   1     ;     237     C8-C9=C10=C11       
     15  17  18  20   1      0.00        -52.620   2     ;     238     C8-C9=C10=C11       
     15  17  18  20   1      0.00          1.743   3     ;     239     C8-C9=C10=C11       
     15  17  18  20   1      0.00         16.538   4     ;     240     C8-C9=C10=C11       
     15  17  18  20   1      0.00          2.014   5     ;     241     C8-C9=C10=C11       
; phi3
     18  20  22  24   1      0.00         19.698   0
     18  20  22  24   1      0.00          7.192   1     ;     243     C10=C11=C12-C13     
     18  20  22  24   1      0.00        -45.793   2     ;     244     C10=C11=C12-C13     
     18  20  22  24   1      0.00          5.460   3     ;     245     C10=C11=C12-C13     
     18  20  22  24   1      0.00         13.209   4     ;     246     C10=C11=C12-C13     
     18  20  22  24   1      0.00         -2.671   5     ;     247     C10=C11=C12-C13     
; phi4
     22  24  25  27   1      0.00         19.698   0
     22  24  25  27   1      0.00          0.076   1     ;     249     C12-C13=C14=C15     
     22  24  25  27   1      0.00        -41.173   2     ;     250     C12-C13=C14=C15     
     22  24  25  27   1      0.00          3.135   3     ;     251     C12-C13=C14=C15     
     22  24  25  27   1      0.00         12.268   4     ;     252     C12-C13=C14=C15     
     22  24  25  27   1      0.00          1.272   5     ;     253     C12-C13=C14=C15     
; phi5
     25  27  53  49   1      0.00         19.698   0
     25  27  53  49   1      0.00        -38.162   2     ;     255     C14=C15=NZ-CT5      
     25  27  53  49   1      0.00          7.740   4     ;     256     C14=C15=NZ-CT5      
; delta around C-C
; delta1
     11  12  13  15   1      0.00         19.698   0
     11  12  13  15   1      0.00         -1.658   1     ;     258     C5=C6-C7=C8         
     11  12  13  15   1      0.00         -1.226   2     ;     259     C5=C6-C7=C8         
     11  12  13  15   1      0.00          3.724   3     ;     260     C5=C6-C7=C8         
     11  12  13  15   1      0.00          0.905   4     ;     261     C5=C6-C7=C8         
     11  12  13  15   1      0.00          0.383   5     ;     262     C5=C6-C7=C8         
; delta2
     13  15  17  18   1      0.00         19.698   0
     13  15  17  18   1      0.00          2.280   1     ;     264     C7=C8-C9=C10        
     13  15  17  18   1      0.00        -14.716   2     ;     265     C7=C8-C9=C10        
     13  15  17  18   1      0.00          4.193   3     ;     266     C7=C8-C9=C10        
     13  15  17  18   1      0.00          3.484   4     ;     267     C7=C8-C9=C10        
     13  15  17  18   1      0.00         -0.557   5     ;     268     C7=C8-C9=C10        
; delta3
     17  18  20  22   1      0.00         19.698   0
     17  18  20  22   1      0.00          9.193   1     ;     270     C9=C10=C11=C12      
     17  18  20  22   1      0.00        -11.436   2     ;     271     C9=C10=C11=C12      
     17  18  20  22   1      0.00          6.030   3     ;     272     C9=C10=C11=C12      
     17  18  20  22   1      0.00          5.439   4     ;     273     C9=C10=C11=C12      
     17  18  20  22   1      0.00          0.515   5     ;     274     C9=C10=C11=C12      
; delta4
     20  22  24  25   1      0.00         19.698   0
     20  22  24  25   1      0.00         -0.308   1     ;     276     C11=C12-C13=C14     
     20  22  24  25   1      0.00        -18.433   2     ;     277     C11=C12-C13=C14     
     20  22  24  25   1      0.00          4.620   3     ;     278     C11=C12-C13=C14     
     20  22  24  25   1      0.00          5.427   4     ;     279     C11=C12-C13=C14     
     20  22  24  25   1      0.00          0.078   5     ;     280     C11=C12-C13=C14     
; delta5
     24  25  27  53   1      0.00         19.698   0
     24  25  27  53   1      0.00          6.662   1     ;     282     C13=C14=C15=NZ      
     24  25  27  53   1      0.00        -32.175   2     ;     283     C13=C14=C15=NZ      
     24  25  27  53   1      0.00          3.920   3     ;     284     C13=C14=C15=NZ      
     24  25  27  53   1      0.00          7.432   4     ;     285     C13=C14=C15=NZ      
     24  25  27  53   1      0.00         -0.983   5     ;     286     C13=C14=C15=NZ      
 
; Nonbonded terms
[ pairs ]
; 1-4 interactions within ring
  1     6   2    0.833     0.000     0.000      0.2486       0.0867000     ;  C1   -    H3 
  1     7   2    0.833     0.000     0.000      0.2486       0.0867000     ;  C1   -    H3 
  1     8   2    0.833     0.000     0.000      0.3332       0.2288700     ;  C1   -    C4 
  1    37   2    0.833     0.000     0.000      0.3366       0.2288700     ;  C1   -    CT2
  2     9   2    0.833     0.000     0.000      0.2486       0.0867000     ;  C2   -    H4 
  2    10   2    0.833     0.000     0.000      0.2486       0.0867000     ;  C2   -    H4 
  2    11   2    0.833     0.000     0.000      0.3332       0.2029200     ;  C2   -    C5 
  2    30   2    0.833     0.000     0.000      0.2486       0.0867000     ;  C2   -    HT1
  2    31   2    0.833     0.000     0.000      0.2486       0.0867000     ;  C2   -    HT1
  2    32   2    0.833     0.000     0.000      0.2486       0.0867000     ;  C2   -    HT1
  2    34   2    0.833     0.000     0.000      0.2486       0.0867000     ;  C2   -    HT1
  2    35   2    0.833     0.000     0.000      0.2486       0.0867000     ;  C2   -    HT1
  2    36   2    0.833     0.000     0.000      0.2486       0.0867000     ;  C2   -    HT1
  3     6   2    0.833     0.000     0.000      0.1639       0.0328400     ;  H2   -    H3 
  3     7   2    0.833     0.000     0.000      0.1639       0.0328400     ;  H2   -    H3 
  3     8   2    0.833     0.000     0.000      0.2486       0.0867000     ;  H2   -    C4 
  3    12   2    0.833     0.000     0.000      0.2486       0.0768700     ;  H2   -    C6 
  3    29   2    0.833     0.000     0.000      0.2519       0.0867000     ;  H2   -    CT1
  3    33   2    0.833     0.000     0.000      0.2519       0.0867000     ;  H2   -    CT1
  4     6   2    0.833     0.000     0.000      0.1639       0.0328400     ;  H2   -    H3 
  4     7   2    0.833     0.000     0.000      0.1639       0.0328400     ;  H2   -    H3 
  4     8   2    0.833     0.000     0.000      0.2486       0.0867000     ;  H2   -    C4 
  4    12   2    0.833     0.000     0.000      0.2486       0.0768700     ;  H2   -    C6 
  4    29   2    0.833     0.000     0.000      0.2519       0.0867000     ;  H2   -    CT1
  4    33   2    0.833     0.000     0.000      0.2519       0.0867000     ;  H2   -    CT1
  5    12   2    0.833     0.000     0.000      0.3332       0.2029200     ;  C3   -    C6 
  5    29   2    0.833     0.000     0.000      0.3366       0.2288700     ;  C3   -    CT1
  5    33   2    0.833     0.000     0.000      0.3366       0.2288700     ;  C3   -    CT1
  5    37   2    0.833     0.000     0.000      0.3366       0.2288700     ;  C3   -    CT2
  6     9   2    0.833     0.000     0.000      0.1639       0.0328400     ;  H3   -    H4 
  6    10   2    0.833     0.000     0.000      0.1639       0.0328400     ;  H3   -    H4 
  6    11   2    0.833     0.000     0.000      0.2486       0.0768700     ;  H3   -    C5 
  7     9   2    0.833     0.000     0.000      0.1639       0.0328400     ;  H3   -    H4 
  7    10   2    0.833     0.000     0.000      0.1639       0.0328400     ;  H3   -    H4 
  7    11   2    0.833     0.000     0.000      0.2486       0.0768700     ;  H3   -    C5 
  8    13   2    0.833     0.000     0.000      0.3332       0.2029200     ;  C4   -    C7 
  8    38   2    0.833     0.000     0.000      0.2486       0.0867000     ;  C4   -    HT2
  8    39   2    0.833     0.000     0.000      0.2486       0.0867000     ;  C4   -    HT2
  8    40   2    0.833     0.000     0.000      0.2486       0.0867000     ;  C4   -    HT2
  9    12   2    0.833     0.000     0.000      0.2486       0.0768700     ;  H4   -    C6 
  9    37   2    0.833     0.000     0.000      0.2519       0.0867000     ;  H4   -    CT2
 10    12   2    0.833     0.000     0.000      0.2486       0.0768700     ;  H4   -    C6 
 10    37   2    0.833     0.000     0.000      0.2519       0.0867000     ;  H4   -    CT2
 11    29   2    0.833     0.000     0.000      0.3366       0.2029200     ;  C5   -    CT1
 11    33   2    0.833     0.000     0.000      0.3366       0.2029200     ;  C5   -    CT1
 12    30   2    0.833     0.000     0.000      0.2486       0.0768700     ;  C6   -    HT1
 12    31   2    0.833     0.000     0.000      0.2486       0.0768700     ;  C6   -    HT1
 12    32   2    0.833     0.000     0.000      0.2486       0.0768700     ;  C6   -    HT1
 12    34   2    0.833     0.000     0.000      0.2486       0.0768700     ;  C6   -    HT1
 12    35   2    0.833     0.000     0.000      0.2486       0.0768700     ;  C6   -    HT1
 12    36   2    0.833     0.000     0.000      0.2486       0.0768700     ;  C6   -    HT1
 12    38   2    0.833     0.000     0.000      0.2486       0.0768700     ;  C6   -    HT2
 12    39   2    0.833     0.000     0.000      0.2486       0.0768700     ;  C6   -    HT2
 12    40   2    0.833     0.000     0.000      0.2486       0.0768700     ;  C6   -    HT2
; other nb interactions
  1     9   2    1.000     0.000     0.000      0.2486       0.1734000     ;  C1   -    H4 
  1    10   2    1.000     0.000     0.000      0.2486       0.1734000     ;  C1   -    H4 
  1    38   2    1.000     0.000     0.000      0.2486       0.1734000     ;  C1   -    HT2
  1    39   2    1.000     0.000     0.000      0.2486       0.1734000     ;  C1   -    HT2
  1    40   2    1.000     0.000     0.000      0.2486       0.1734000     ;  C1   -    HT2
  3     9   2    1.000     0.000     0.000      0.1639       0.0656900     ;  H2   -    H4 
  3    10   2    1.000     0.000     0.000      0.1639       0.0656900     ;  H2   -    H4 
  3    11   2    1.000     0.000     0.000      0.2486       0.1537400     ;  H2   -    C5 
  3    30   2    1.000     0.000     0.000      0.1639       0.0656900     ;  H2   -    HT1
  3    31   2    1.000     0.000     0.000      0.1639       0.0656900     ;  H2   -    HT1
  3    32   2    1.000     0.000     0.000      0.1639       0.0656900     ;  H2   -    HT1
  3    34   2    1.000     0.000     0.000      0.1639       0.0656900     ;  H2   -    HT1
  3    35   2    1.000     0.000     0.000      0.1639       0.0656900     ;  H2   -    HT1
  3    36   2    1.000     0.000     0.000      0.1639       0.0656900     ;  H2   -    HT1
  3    37   2    1.000     0.000     0.000      0.2519       0.1734000     ;  H2   -    CT2
  3    38   2    1.000     0.000     0.000      0.1639       0.0656900     ;  H2   -    HT2
  3    39   2    1.000     0.000     0.000      0.1639       0.0656900     ;  H2   -    HT2
  3    40   2    1.000     0.000     0.000      0.1639       0.0656900     ;  H2   -    HT2
  4    30   2    1.000     0.000     0.000      0.1639       0.0656900     ;  H2   -    HT1
  4    31   2    1.000     0.000     0.000      0.1639       0.0656900     ;  H2   -    HT1
  4    32   2    1.000     0.000     0.000      0.1639       0.0656900     ;  H2   -    HT1
  4    34   2    1.000     0.000     0.000      0.1639       0.0656900     ;  H2   -    HT1
  4    35   2    1.000     0.000     0.000      0.1639       0.0656900     ;  H2   -    HT1
  4    36   2    1.000     0.000     0.000      0.1639       0.0656900     ;  H2   -    HT1
  4    37   2    1.000     0.000     0.000      0.2519       0.1734000     ;  H2   -    CT2
  4    38   2    1.000     0.000     0.000      0.1639       0.0656900     ;  H2   -    HT2
  4    39   2    1.000     0.000     0.000      0.1639       0.0656900     ;  H2   -    HT2
  4    40   2    1.000     0.000     0.000      0.1639       0.0656900     ;  H2   -    HT2
  5    30   2    1.000     0.000     0.000      0.2486       0.1734000     ;  C3   -    HT1
  5    31   2    1.000     0.000     0.000      0.2486       0.1734000     ;  C3   -    HT1
  5    32   2    1.000     0.000     0.000      0.2486       0.1734000     ;  C3   -    HT1
  5    34   2    1.000     0.000     0.000      0.2486       0.1734000     ;  C3   -    HT1
  5    35   2    1.000     0.000     0.000      0.2486       0.1734000     ;  C3   -    HT1
  5    36   2    1.000     0.000     0.000      0.2486       0.1734000     ;  C3   -    HT1
  5    38   2    1.000     0.000     0.000      0.2486       0.1734000     ;  C3   -    HT2
  5    39   2    1.000     0.000     0.000      0.2486       0.1734000     ;  C3   -    HT2
  5    40   2    1.000     0.000     0.000      0.2486       0.1734000     ;  C3   -    HT2
  6    12   2    1.000     0.000     0.000      0.2486       0.1537400     ;  H3   -    C6 
  6    29   2    1.000     0.000     0.000      0.2519       0.1734000     ;  H3   -    CT1
  6    30   2    1.000     0.000     0.000      0.1639       0.0656900     ;  H3   -    HT1
  6    31   2    1.000     0.000     0.000      0.1639       0.0656900     ;  H3   -    HT1
  6    32   2    1.000     0.000     0.000      0.1639       0.0656900     ;  H3   -    HT1
  6    33   2    1.000     0.000     0.000      0.2519       0.1734000     ;  H3   -    CT1
  6    34   2    1.000     0.000     0.000      0.1639       0.0656900     ;  H3   -    HT1
  6    35   2    1.000     0.000     0.000      0.1639       0.0656900     ;  H3   -    HT1
  6    36   2    1.000     0.000     0.000      0.1639       0.0656900     ;  H3   -    HT1
  6    37   2    1.000     0.000     0.000      0.2519       0.1734000     ;  H3   -    CT2
  6    38   2    1.000     0.000     0.000      0.1639       0.0656900     ;  H3   -    HT2
  6    39   2    1.000     0.000     0.000      0.1639       0.0656900     ;  H3   -    HT2
  7    12   2    1.000     0.000     0.000      0.2486       0.1537400     ;  H3   -    C6 
  7    29   2    1.000     0.000     0.000      0.2519       0.1734000     ;  H3   -    CT1
  7    30   2    1.000     0.000     0.000      0.1639       0.0656900     ;  H3   -    HT1
  7    31   2    1.000     0.000     0.000      0.1639       0.0656900     ;  H3   -    HT1
  7    32   2    1.000     0.000     0.000      0.1639       0.0656900     ;  H3   -    HT1
  7    33   2    1.000     0.000     0.000      0.2519       0.1734000     ;  H3   -    CT1
  7    34   2    1.000     0.000     0.000      0.1639       0.0656900     ;  H3   -    HT1
  7    35   2    1.000     0.000     0.000      0.1639       0.0656900     ;  H3   -    HT1
  7    36   2    1.000     0.000     0.000      0.1639       0.0656900     ;  H3   -    HT1
  7    37   2    1.000     0.000     0.000      0.2519       0.1734000     ;  H3   -    CT2
  7    38   2    1.000     0.000     0.000      0.1639       0.0656900     ;  H3   -    HT2
  7    39   2    1.000     0.000     0.000      0.1639       0.0656900     ;  H3   -    HT2
  7    40   2    1.000     0.000     0.000      0.1639       0.0656900     ;  H3   -    HT2
  8    29   2    1.000     0.000     0.000      0.3366       0.4577300     ;  C4   -    CT1
  8    30   2    1.000     0.000     0.000      0.2486       0.1734000     ;  C4   -    HT1
  8    31   2    1.000     0.000     0.000      0.2486       0.1734000     ;  C4   -    HT1
  8    32   2    1.000     0.000     0.000      0.2486       0.1734000     ;  C4   -    HT1
  8    33   2    1.000     0.000     0.000      0.3366       0.4577300     ;  C4   -    CT1
  8    34   2    1.000     0.000     0.000      0.2486       0.1734000     ;  C4   -    HT1
  8    35   2    1.000     0.000     0.000      0.2486       0.1734000     ;  C4   -    HT1
  8    36   2    1.000     0.000     0.000      0.2486       0.1734000     ;  C4   -    HT1
  9    29   2    1.000     0.000     0.000      0.2519       0.1734000     ;  H4   -    CT1
  9    30   2    1.000     0.000     0.000      0.1639       0.0656900     ;  H4   -    HT1
  9    31   2    1.000     0.000     0.000      0.1639       0.0656900     ;  H4   -    HT1
  9    32   2    1.000     0.000     0.000      0.1639       0.0656900     ;  H4   -    HT1
  9    33   2    1.000     0.000     0.000      0.2519       0.1734000     ;  H4   -    CT1
  9    34   2    1.000     0.000     0.000      0.1639       0.0656900     ;  H4   -    HT1
  9    35   2    1.000     0.000     0.000      0.1639       0.0656900     ;  H4   -    HT1
  9    36   2    1.000     0.000     0.000      0.1639       0.0656900     ;  H4   -    HT1
  9    38   2    1.000     0.000     0.000      0.1639       0.0656900     ;  H4   -    HT2
  9    39   2    1.000     0.000     0.000      0.1639       0.0656900     ;  H4   -    HT2
  9    40   2    1.000     0.000     0.000      0.1639       0.0656900     ;  H4   -    HT2
 10    29   2    1.000     0.000     0.000      0.2519       0.1734000     ;  H4   -    CT1
 10    30   2    1.000     0.000     0.000      0.1639       0.0656900     ;  H4   -    HT1
 10    31   2    1.000     0.000     0.000      0.1639       0.0656900     ;  H4   -    HT1
 10    32   2    1.000     0.000     0.000      0.1639       0.0656900     ;  H4   -    HT1
 10    33   2    1.000     0.000     0.000      0.2519       0.1734000     ;  H4   -    CT1
 10    34   2    1.000     0.000     0.000      0.1639       0.0656900     ;  H4   -    HT1
 10    35   2    1.000     0.000     0.000      0.1639       0.0656900     ;  H4   -    HT1
 10    36   2    1.000     0.000     0.000      0.1639       0.0656900     ;  H4   -    HT1
 10    38   2    1.000     0.000     0.000      0.1639       0.0656900     ;  H4   -    HT2
 10    39   2    1.000     0.000     0.000      0.1639       0.0656900     ;  H4   -    HT2
 10    40   2    1.000     0.000     0.000      0.1639       0.0656900     ;  H4   -    HT2
 11    30   2    1.000     0.000     0.000      0.2486       0.1537400     ;  C5   -    HT1
 11    31   2    1.000     0.000     0.000      0.2486       0.1537400     ;  C5   -    HT1
 11    32   2    1.000     0.000     0.000      0.2486       0.1537400     ;  C5   -    HT1
 11    34   2    1.000     0.000     0.000      0.2486       0.1537400     ;  C5   -    HT1
 11    35   2    1.000     0.000     0.000      0.2486       0.1537400     ;  C5   -    HT1
 11    36   2    1.000     0.000     0.000      0.2486       0.1537400     ;  C5   -    HT1
 14    19   2    1.000     0.000     0.000      0.1639       0.0656900     ;  H7   -    H10
 14    30   2    1.000     0.000     0.000      0.1639       0.0656900     ;  H7   -    HT1
 14    31   2    1.000     0.000     0.000      0.1639       0.0656900     ;  H7   -    HT1
 14    32   2    1.000     0.000     0.000      0.1639       0.0656900     ;  H7   -    HT1
 14    34   2    1.000     0.000     0.000      0.1639       0.0656900     ;  H7   -    HT1
 14    35   2    1.000     0.000     0.000      0.1639       0.0656900     ;  H7   -    HT1
 14    36   2    1.000     0.000     0.000      0.1639       0.0656900     ;  H7   -    HT1
 14    38   2    1.000     0.000     0.000      0.1639       0.0656900     ;  H7   -    HT2
 14    39   2    1.000     0.000     0.000      0.1639       0.0656900     ;  H7   -    HT2
 14    40   2    1.000     0.000     0.000      0.1639       0.0656900     ;  H7   -    HT2
 14    42   2    1.000     0.000     0.000      0.1639       0.0656900     ;  H7   -    HT3
 14    43   2    1.000     0.000     0.000      0.1639       0.0656900     ;  H7   -    HT3
 14    44   2    1.000     0.000     0.000      0.1639       0.0656900     ;  H7   -    HT3
; d1
 16  30   2    1.000    0.000    0.000    0.1639     0.06569     ;  H8   - HT1
 16  31   2    1.000    0.000    0.000    0.1639     0.06569     ;  H8   - HT1
 16  32   2    1.000    0.000    0.000    0.1639     0.06569     ;  H8   - HT1
 16  34   2    1.000    0.000    0.000    0.1639     0.06569     ;  H8   - HT1
 16  35   2    1.000    0.000    0.000    0.1639     0.06569     ;  H8   - HT1
 16  36   2    1.000    0.000    0.000    0.1639     0.06569     ;  H8   - HT1
 16  38   2    1.000    0.000    0.000    0.1639     0.06569     ;  H8   - HT2
 16  39   2    1.000    0.000    0.000    0.1639     0.06569     ;  H8   - HT2
 16  40   2    1.000    0.000    0.000    0.1639     0.06569     ;  H8   - HT2
 16  42   2    1.000    0.000    0.000    0.1639     0.06569     ;  H8   - HT3
 16  43   2    1.000    0.000    0.000    0.1639     0.06569     ;  H8   - HT3
 16  44   2    1.000    0.000    0.000    0.1639     0.06569     ;  H8   - HT3
 19    46   2    1.000     0.000     0.000      0.1639       0.0656900     ;  H10  -    HT4
 19    47   2    1.000     0.000     0.000      0.1639       0.0656900     ;  H10  -    HT4
 19    48   2    1.000     0.000     0.000      0.1639       0.0656900     ;  H10  -    HT4
 21    41   2    1.000     0.000     0.000      0.2519       0.1734000     ;  H11  -    CT3
 21    42   2    1.000     0.000     0.000      0.1639       0.0656900     ;  H11  -    HT3
 21    43   2    1.000     0.000     0.000      0.1639       0.0656900     ;  H11  -    HT3
 22    42   2    1.000     0.000     0.000      0.2486       0.1537400     ;  C12  -    HT3
 22    43   2    1.000     0.000     0.000      0.2486       0.1537400     ;  C12  -    HT3
 22    44   2    1.000     0.000     0.000      0.2486       0.1537400     ;  C12  -    HT3
 23    46   2    1.000     0.000     0.000      0.1639       0.0656900     ;  H12  -    HT4
 23    47   2    1.000     0.000     0.000      0.1639       0.0656900     ;  H12  -    HT4
 23    48   2    1.000     0.000     0.000      0.1639       0.0656900     ;  H12  -    HT4
 26    46   2    1.000     0.000     0.000      0.1639       0.0656900     ;  H14  -    HT4
 26    47   2    1.000     0.000     0.000      0.1639       0.0656900     ;  H14  -    HT4
 26    48   2    1.000     0.000     0.000      0.1639       0.0656900     ;  H14  -    HT4
 28    46   2    1.000     0.000     0.000      0.1639       0.0656900     ;  H15  -    HT4
 28    47   2    1.000     0.000     0.000      0.1639       0.0656900     ;  H15  -    HT4
 28    48   2    1.000     0.000     0.000      0.1639       0.0656900     ;  H15  -    HT4
 29    37   2    1.000     0.000     0.000      0.3400       0.4577300     ;  CT1  -    CT2
 29    38   2    1.000     0.000     0.000      0.2519       0.1734000     ;  CT1  -    HT2
 29    39   2    1.000     0.000     0.000      0.2519       0.1734000     ;  CT1  -    HT2
 30    34   2    1.000     0.000     0.000      0.1639       0.0656900     ;  HT1  -    HT1
 30    35   2    1.000     0.000     0.000      0.1639       0.0656900     ;  HT1  -    HT1
 30    36   2    1.000     0.000     0.000      0.1639       0.0656900     ;  HT1  -    HT1
 30    37   2    1.000     0.000     0.000      0.2519       0.1734000     ;  HT1  -    CT2
 30    38   2    1.000     0.000     0.000      0.1639       0.0656900     ;  HT1  -    HT2
 30    39   2    1.000     0.000     0.000      0.1639       0.0656900     ;  HT1  -    HT2
 30    40   2    1.000     0.000     0.000      0.1639       0.0656900     ;  HT1  -    HT2
 31    34   2    1.000     0.000     0.000      0.1639       0.0656900     ;  HT1  -    HT1
 31    35   2    1.000     0.000     0.000      0.1639       0.0656900     ;  HT1  -    HT1
 31    36   2    1.000     0.000     0.000      0.1639       0.0656900     ;  HT1  -    HT1
 31    37   2    1.000     0.000     0.000      0.2519       0.1734000     ;  HT1  -    CT2
 31    38   2    1.000     0.000     0.000      0.1639       0.0656900     ;  HT1  -    HT2
 31    39   2    1.000     0.000     0.000      0.1639       0.0656900     ;  HT1  -    HT2
 31    40   2    1.000     0.000     0.000      0.1639       0.0656900     ;  HT1  -    HT2
 32    34   2    1.000     0.000     0.000      0.1639       0.0656900     ;  HT1  -    HT1
 32    35   2    1.000     0.000     0.000      0.1639       0.0656900     ;  HT1  -    HT1
 32    36   2    1.000     0.000     0.000      0.1639       0.0656900     ;  HT1  -    HT1
 32    37   2    1.000     0.000     0.000      0.2519       0.1734000     ;  HT1  -    CT2
 32    38   2    1.000     0.000     0.000      0.1639       0.0656900     ;  HT1  -    HT2
 32    39   2    1.000     0.000     0.000      0.1639       0.0656900     ;  HT1  -    HT2
 32    40   2    1.000     0.000     0.000      0.1639       0.0656900     ;  HT1  -    HT2
 33    37   2    1.000     0.000     0.000      0.3400       0.4577300     ;  CT1  -    CT2
 33    38   2    1.000     0.000     0.000      0.2519       0.1734000     ;  CT1  -    HT2
 33    39   2    1.000     0.000     0.000      0.2519       0.1734000     ;  CT1  -    HT2
 33    40   2    1.000     0.000     0.000      0.2519       0.1734000     ;  CT1  -    HT2
 34    37   2    1.000     0.000     0.000      0.2519       0.1734000     ;  HT1  -    CT2
 34    38   2    1.000     0.000     0.000      0.1639       0.0656900     ;  HT1  -    HT2
 34    39   2    1.000     0.000     0.000      0.1639       0.0656900     ;  HT1  -    HT2
 34    40   2    1.000     0.000     0.000      0.1639       0.0656900     ;  HT1  -    HT2
 35    37   2    1.000     0.000     0.000      0.2519       0.1734000     ;  HT1  -    CT2
 35    38   2    1.000     0.000     0.000      0.1639       0.0656900     ;  HT1  -    HT2
 35    39   2    1.000     0.000     0.000      0.1639       0.0656900     ;  HT1  -    HT2
 35    40   2    1.000     0.000     0.000      0.1639       0.0656900     ;  HT1  -    HT2
 36    37   2    1.000     0.000     0.000      0.2519       0.1734000     ;  HT1  -    CT2
 36    38   2    1.000     0.000     0.000      0.1639       0.0656900     ;  HT1  -    HT2
 36    39   2    1.000     0.000     0.000      0.1639       0.0656900     ;  HT1  -    HT2
 36    40   2    1.000     0.000     0.000      0.1639       0.0656900     ;  HT1  -    HT2
; phi1
 38  42   2    1.000    0.000    0.000    0.1639     0.06569     ;  HT2  - HT3
 38  43   2    1.000    0.000    0.000    0.1639     0.06569     ;  HT2  - HT3
 38  44   2    1.000    0.000    0.000    0.1639     0.06569     ;  HT2  - HT3
 39  42   2    1.000    0.000    0.000    0.1639     0.06569     ;  HT2  - HT3
 39  43   2    1.000    0.000    0.000    0.1639     0.06569     ;  HT2  - HT3
 39  44   2    1.000    0.000    0.000    0.1639     0.06569     ;  HT2  - HT3
 40  41   2    1.000    0.000    0.000    0.2519     0.17340     ;  HT2  - CT3
 40  42   2    1.000    0.000    0.000    0.1639     0.06569     ;  HT2  - HT3
 40  43   2    1.000    0.000    0.000    0.1639     0.06569     ;  HT2  - HT3
; d3
 41  45   2    1.000    0.000    0.000    0.2000     0.00500     ;  CT3  - CT4
 41  46   2    1.000    0.000    0.000    0.1500     0.00500     ;  CT3  - HT4
 41  47   2    1.000    0.000    0.000    0.1500     0.00500     ;  CT3  - HT4
 41  48   2    1.000    0.000    0.000    0.1500     0.00500     ;  CT3  - HT4
 42  45   2    1.000    0.000    0.000    0.1500     0.00500     ;  HT3  - CT4
 42  46   2    1.000    0.000    0.000    0.1200     0.00500     ;  HT3  - HT4
 42  47   2    1.000    0.000    0.000    0.1200     0.00500     ;  HT3  - HT4
 42  48   2    1.000    0.000    0.000    0.1200     0.00500     ;  HT3  - HT4
 43  45   2    1.000    0.000    0.000    0.1500     0.00500     ;  HT3  - CT4
 43  46   2    1.000    0.000    0.000    0.1200     0.00500     ;  HT3  - HT4
 43  47   2    1.000    0.000    0.000    0.1200     0.00500     ;  HT3  - HT4
 43  48   2    1.000    0.000    0.000    0.1200     0.00500     ;  HT3  - HT4
 44  45   2    1.000    0.000    0.000    0.1500     0.00500     ;  HT3  - CT4
 44  46   2    1.000    0.000    0.000    0.1200     0.00500     ;  HT3  - HT4
 44  47   2    1.000    0.000    0.000    0.1200     0.00500     ;  HT3  - HT4
 44  48   2    1.000    0.000    0.000    0.1200     0.00500     ;  HT3  - HT4
 
; Exclusions from default nonbonded
[ exclusions ]
; ai        aj
     1     2
     1     3
     1     4
     1     5
     1     6
     1     7
     1     8
     1     9
     1    10
     1    11
     1    12
     1    13
     1    14
     1    15
     1    16
     1    17
     1    18
     1    19
     1    20
     1    21
     1    22
     1    23
     1    24
     1    25
     1    26
     1    27
     1    28
     1    29
     1    30
     1    31
     1    32
     1    33
     1    34
     1    35
     1    36
     1    37
     1    38
     1    39
     1    40
     1    41
     1    42
     1    43
     1    44
     1    45
     1    46
     1    47
     1    48
     1    49
     1    50
     1    51
     1    52
     1    53
     1    54
     2     3
     2     4
     2     5
     2     6
     2     7
     2     8
     2     9
     2    10
     2    11
     2    12
     2    13
     2    14
     2    15
     2    16
     2    17
     2    18
     2    19
     2    20
     2    21
     2    22
     2    23
     2    24
     2    25
     2    26
     2    27
     2    28
     2    29
     2    30
     2    31
     2    32
     2    33
     2    34
     2    35
     2    36
     2    37
     2    38
     2    39
     2    40
     2    41
     2    42
     2    43
     2    44
     2    45
     2    46
     2    47
     2    48
     2    49
     2    50
     2    51
     2    52
     2    53
     2    54
     3     4
     3     5
     3     6
     3     7
     3     8
     3     9
     3    10
     3    11
     3    12
     3    13
     3    14
     3    15
     3    16
     3    17
     3    18
     3    19
     3    20
     3    21
     3    22
     3    23
     3    24
     3    25
     3    26
     3    27
     3    28
     3    29
     3    30
     3    31
     3    32
     3    33
     3    34
     3    35
     3    36
     3    37
     3    38
     3    39
     3    40
     3    41
     3    42
     3    43
     3    44
     3    45
     3    46
     3    47
     3    48
     3    49
     3    50
     3    51
     3    52
     3    53
     3    54
     4     5
     4     6
     4     7
     4     8
     4     9
     4    10
     4    11
     4    12
     4    13
     4    14
     4    15
     4    16
     4    17
     4    18
     4    19
     4    20
     4    21
     4    22
     4    23
     4    24
     4    25
     4    26
     4    27
     4    28
     4    29
     4    30
     4    31
     4    32
     4    33
     4    34
     4    35
     4    36
     4    37
     4    38
     4    39
     4    40
     4    41
     4    42
     4    43
     4    44
     4    45
     4    46
     4    47
     4    48
     4    49
     4    50
     4    51
     4    52
     4    53
     4    54
     5     6
     5     7
     5     8
     5     9
     5    10
     5    11
     5    12
     5    13
     5    14
     5    15
     5    16
     5    17
     5    18
     5    19
     5    20
     5    21
     5    22
     5    23
     5    24
     5    25
     5    26
     5    27
     5    28
     5    29
     5    30
     5    31
     5    32
     5    33
     5    34
     5    35
     5    36
     5    37
     5    38
     5    39
     5    40
     5    41
     5    42
     5    43
     5    44
     5    45
     5    46
     5    47
     5    48
     5    49
     5    50
     5    51
     5    52
     5    53
     5    54
     6     7
     6     8
     6     9
     6    10
     6    11
     6    12
     6    13
     6    14
     6    15
     6    16
     6    17
     6    18
     6    19
     6    20
     6    21
     6    22
     6    23
     6    24
     6    25
     6    26
     6    27
     6    28
     6    29
     6    30
     6    31
     6    32
     6    33
     6    34
     6    35
     6    36
     6    37
     6    38
     6    39
     6    40
     6    41
     6    42
     6    43
     6    44
     6    45
     6    46
     6    47
     6    48
     6    49
     6    50
     6    51
     6    52
     6    53
     6    54
     7     8
     7     9
     7    10
     7    11
     7    12
     7    13
     7    14
     7    15
     7    16
     7    17
     7    18
     7    19
     7    20
     7    21
     7    22
     7    23
     7    24
     7    25
     7    26
     7    27
     7    28
     7    29
     7    30
     7    31
     7    32
     7    33
     7    34
     7    35
     7    36
     7    37
     7    38
     7    39
     7    40
     7    41
     7    42
     7    43
     7    44
     7    45
     7    46
     7    47
     7    48
     7    49
     7    50
     7    51
     7    52
     7    53
     7    54
     8     9
     8    10
     8    11
     8    12
     8    13
     8    14
     8    15
     8    16
     8    17
     8    18
     8    19
     8    20
     8    21
     8    22
     8    23
     8    24
     8    25
     8    26
     8    27
     8    28
     8    29
     8    30
     8    31
     8    32
     8    33
     8    34
     8    35
     8    36
     8    37
     8    38
     8    39
     8    40
     8    41
     8    42
     8    43
     8    44
     8    45
     8    46
     8    47
     8    48
     8    49
     8    50
     8    51
     8    52
     8    53
     8    54
     9    10
     9    11
     9    12
     9    13
     9    14
     9    15
     9    16
     9    17
     9    18
     9    19
     9    20
     9    21
     9    22
     9    23
     9    24
     9    25
     9    26
     9    27
     9    28
     9    29
     9    30
     9    31
     9    32
     9    33
     9    34
     9    35
     9    36
     9    37
     9    38
     9    39
     9    40
     9    41
     9    42
     9    43
     9    44
     9    45
     9    46
     9    47
     9    48
     9    49
     9    50
     9    51
     9    52
     9    53
     9    54
    10    11
    10    12
    10    13
    10    14
    10    15
    10    16
    10    17
    10    18
    10    19
    10    20
    10    21
    10    22
    10    23
    10    24
    10    25
    10    26
    10    27
    10    28
    10    29
    10    30
    10    31
    10    32
    10    33
    10    34
    10    35
    10    36
    10    37
    10    38
    10    39
    10    40
    10    41
    10    42
    10    43
    10    44
    10    45
    10    46
    10    47
    10    48
    10    49
    10    50
    10    51
    10    52
    10    53
    10    54
    11    12
    11    13
    11    14
    11    15
    11    16
    11    17
    11    18
    11    19
    11    20
    11    21
    11    22
    11    23
    11    24
    11    25
    11    26
    11    27
    11    28
    11    29
    11    30
    11    31
    11    32
    11    33
    11    34
    11    35
    11    36
    11    37
    11    38
    11    39
    11    40
    11    41
    11    42
    11    43
    11    44
    11    45
    11    46
    11    47
    11    48
    11    49
    11    50
    11    51
    11    52
    11    53
    11    54
    12    13
    12    14
    12    15
    12    16
    12    17
    12    18
    12    19
    12    20
    12    21
    12    22
    12    23
    12    24
    12    25
    12    26
    12    27
    12    28
    12    29
    12    30
    12    31
    12    32
    12    33
    12    34
    12    35
    12    36
    12    37
    12    38
    12    39
    12    40
    12    41
    12    42
    12    43
    12    44
    12    45
    12    46
    12    47
    12    48
    12    49
    12    50
    12    51
    12    52
    12    53
    12    54
    13    14
    13    15
    13    16
    13    17
    13    18
    13    19
    13    20
    13    21
    13    22
    13    23
    13    24
    13    25
    13    26
    13    27
    13    28
    13    29
    13    30
    13    31
    13    32
    13    33
    13    34
    13    35
    13    36
    13    37
    13    38
    13    39
    13    40
    13    41
    13    42
    13    43
    13    44
    13    45
    13    46
    13    47
    13    48
    13    49
    13    50
    13    51
    13    52
    13    53
    13    54
    14    15
    14    16
    14    17
    14    18
    14    19
    14    20
    14    21
    14    22
    14    23
    14    24
    14    25
    14    26
    14    27
    14    28
    14    29
    14    30
    14    31
    14    32
    14    33
    14    34
    14    35
    14    36
    14    37
    14    38
    14    39
    14    40
    14    41
    14    42
    14    43
    14    44
    14    45
    14    46
    14    47
    14    48
    14    49
    14    50
    14    51
    14    52
    14    53
    14    54
    15    16
    15    17
    15    18
    15    19
    15    20
    15    21
    15    22
    15    23
    15    24
    15    25
    15    26
    15    27
    15    28
    15    29
    15    30
    15    31
    15    32
    15    33
    15    34
    15    35
    15    36
    15    37
    15    38
    15    39
    15    40
    15    41
    15    42
    15    43
    15    44
    15    45
    15    46
    15    47
    15    48
    15    49
    15    50
    15    51
    15    52
    15    53
    15    54
    16    17
    16    18
    16    19
    16    20
    16    21
    16    22
    16    23
    16    24
    16    25
    16    26
    16    27
    16    28
    16    29
    16    30
    16    31
    16    32
    16    33
    16    34
    16    35
    16    36
    16    37
    16    38
    16    39
    16    40
    16    41
    16    42
    16    43
    16    44
    16    45
    16    46
    16    47
    16    48
    16    49
    16    50
    16    51
    16    52
    16    53
    16    54
    17    18
    17    19
    17    20
    17    21
    17    22
    17    23
    17    24
    17    25
    17    26
    17    27
    17    28
    17    29
    17    30
    17    31
    17    32
    17    33
    17    34
    17    35
    17    36
    17    37
    17    38
    17    39
    17    40
    17    41
    17    42
    17    43
    17    44
    17    45
    17    46
    17    47
    17    48
    17    49
    17    50
    17    51
    17    52
    17    53
    17    54
    18    19
    18    20
    18    21
    18    22
    18    23
    18    24
    18    25
    18    26
    18    27
    18    28
    18    29
    18    30
    18    31
    18    32
    18    33
    18    34
    18    35
    18    36
    18    37
    18    38
    18    39
    18    40
    18    41
    18    42
    18    43
    18    44
    18    45
    18    46
    18    47
    18    48
    18    49
    18    50
    18    51
    18    52
    18    53
    18    54
    19    20
    19    21
    19    22
    19    23
    19    24
    19    25
    19    26
    19    27
    19    28
    19    29
    19    30
    19    31
    19    32
    19    33
    19    34
    19    35
    19    36
    19    37
    19    38
    19    39
    19    40
    19    41
    19    42
    19    43
    19    44
    19    45
    19    46
    19    47
    19    48
    19    49
    19    50
    19    51
    19    52
    19    53
    19    54
    20    21
    20    22
    20    23
    20    24
    20    25
    20    26
    20    27
    20    28
    20    29
    20    30
    20    31
    20    32
    20    33
    20    34
    20    35
    20    36
    20    37
    20    38
    20    39
    20    40
    20    41
    20    42
    20    43
    20    44
    20    45
    20    46
    20    47
    20    48
    20    49
    20    50
    20    51
    20    52
    20    53
    20    54
    21    22
    21    23
    21    24
    21    25
    21    26
    21    27
    21    28
    21    29
    21    30
    21    31
    21    32
    21    33
    21    34
    21    35
    21    36
    21    37
    21    38
    21    39
    21    40
    21    41
    21    42
    21    43
    21    44
    21    45
    21    46
    21    47
    21    48
    21    49
    21    50
    21    51
    21    52
    21    53
    21    54
    22    23
    22    24
    22    25
    22    26
    22    27
    22    28
    22    29
    22    30
    22    31
    22    32
    22    33
    22    34
    22    35
    22    36
    22    37
    22    38
    22    39
    22    40
    22    41
    22    42
    22    43
    22    44
    22    45
    22    46
    22    47
    22    48
    22    49
    22    50
    22    51
    22    52
    22    53
    22    54
    23    24
    23    25
    23    26
    23    27
    23    28
    23    29
    23    30
    23    31
    23    32
    23    33
    23    34
    23    35
    23    36
    23    37
    23    38
    23    39
    23    40
    23    41
    23    42
    23    43
    23    44
    23    45
    23    46
    23    47
    23    48
    23    49
    23    50
    23    51
    23    52
    23    53
    23    54
    24    25
    24    26
    24    27
    24    28
    24    29
    24    30
    24    31
    24    32
    24    33
    24    34
    24    35
    24    36
    24    37
    24    38
    24    39
    24    40
    24    41
    24    42
    24    43
    24    44
    24    45
    24    46
    24    47
    24    48
    24    49
    24    50
    24    51
    24    52
    24    53
    24    54
    25    26
    25    27
    25    28
    25    29
    25    30
    25    31
    25    32
    25    33
    25    34
    25    35
    25    36
    25    37
    25    38
    25    39
    25    40
    25    41
    25    42
    25    43
    25    44
    25    45
    25    46
    25    47
    25    48
    25    49
    25    50
    25    51
    25    52
    25    53
    25    54
    26    27
    26    28
    26    29
    26    30
    26    31
    26    32
    26    33
    26    34
    26    35
    26    36
    26    37
    26    38
    26    39
    26    40
    26    41
    26    42
    26    43
    26    44
    26    45
    26    46
    26    47
    26    48
    26    49
    26    50
    26    51
    26    52
    26    53
    26    54
    27    28
    27    29
    27    30
    27    31
    27    32
    27    33
    27    34
    27    35
    27    36
    27    37
    27    38
    27    39
    27    40
    27    41
    27    42
    27    43
    27    44
    27    45
    27    46
    27    47
    27    48
    27    49
    27    50
    27    51
    27    52
    27    53
    27    54
    28    29
    28    30
    28    31
    28    32
    28    33
    28    34
    28    35
    28    36
    28    37
    28    38
    28    39
    28    40
    28    41
    28    42
    28    43
    28    44
    28    45
    28    46
    28    47
    28    48
    28    49
    28    50
    28    51
    28    52
    28    53
    28    54
    29    30
    29    31
    29    32
    29    33
    29    34
    29    35
    29    36
    29    37
    29    38
    29    39
    29    40
    29    41
    29    42
    29    43
    29    44
    29    45
    29    46
    29    47
    29    48
    29    49
    29    50
    29    51
    29    52
    29    53
    29    54
    30    31
    30    32
    30    33
    30    34
    30    35
    30    36
    30    37
    30    38
    30    39
    30    40
    30    41
    30    42
    30    43
    30    44
    30    45
    30    46
    30    47
    30    48
    30    49
    30    50
    30    51
    30    52
    30    53
    30    54
    31    32
    31    33
    31    34
    31    35
    31    36
    31    37
    31    38
    31    39
    31    40
    31    41
    31    42
    31    43
    31    44
    31    45
    31    46
    31    47
    31    48
    31    49
    31    50
    31    51
    31    52
    31    53
    31    54
    32    33
    32    34
    32    35
    32    36
    32    37
    32    38
    32    39
    32    40
    32    41
    32    42
    32    43
    32    44
    32    45
    32    46
    32    47
    32    48
    32    49
    32    50
    32    51
    32    52
    32    53
    32    54
    33    34
    33    35
    33    36
    33    37
    33    38
    33    39
    33    40
    33    41
    33    42
    33    43
    33    44
    33    45
    33    46
    33    47
    33    48
    33    49
    33    50
    33    51
    33    52
    33    53
    33    54
    34    35
    34    36
    34    37
    34    38
    34    39
    34    40
    34    41
    34    42
    34    43
    34    44
    34    45
    34    46
    34    47
    34    48
    34    49
    34    50
    34    51
    34    52
    34    53
    34    54
    35    36
    35    37
    35    38
    35    39
    35    40
    35    41
    35    42
    35    43
    35    44
    35    45
    35    46
    35    47
    35    48
    35    49
    35    50
    35    51
    35    52
    35    53
    35    54
    36    37
    36    38
    36    39
    36    40
    36    41
    36    42
    36    43
    36    44
    36    45
    36    46
    36    47
    36    48
    36    49
    36    50
    36    51
    36    52
    36    53
    36    54
    37    38
    37    39
    37    40
    37    41
    37    42
    37    43
    37    44
    37    45
    37    46
    37    47
    37    48
    37    49
    37    50
    37    51
    37    52
    37    53
    37    54
    38    39
    38    40
    38    41
    38    42
    38    43
    38    44
    38    45
    38    46
    38    47
    38    48
    38    49
    38    50
    38    51
    38    52
    38    53
    38    54
    39    40
    39    41
    39    42
    39    43
    39    44
    39    45
    39    46
    39    47
    39    48
    39    49
    39    50
    39    51
    39    52
    39    53
    39    54
    40    41
    40    42
    40    43
    40    44
    40    45
    40    46
    40    47
    40    48
    40    49
    40    50
    40    51
    40    52
    40    53
    40    54
    41    42
    41    43
    41    44
    41    45
    41    46
    41    47
    41    48
    41    49
    41    50
    41    51
    41    52
    41    53
    41    54
    42    43
    42    44
    42    45
    42    46
    42    47
    42    48
    42    49
    42    50
    42    51
    42    52
    42    53
    42    54
    43    44
    43    45
    43    46
    43    47
    43    48
    43    49
    43    50
    43    51
    43    52
    43    53
    43    54
    44    45
    44    46
    44    47
    44    48
    44    49
    44    50
    44    51
    44    52
    44    53
    44    54
    45    46
    45    47
    45    48
    45    49
    45    50
    45    51
    45    52
    45    53
    45    54
    46    47
    46    48
    46    49
    46    50
    46    51
    46    52
    46    53
    46    54
    47    48
    47    49
    47    50
    47    51
    47    52
    47    53
    47    54
    48    49
    48    50
    48    51
    48    52
    48    53
    48    54
    49    50
    49    51
    49    52
    49    53
    49    54
    50    51
    50    52
    50    53
    50    54
    51    52
    51    53
    51    54
    52    53
    52    54
    53    54
 
