;
; Daniele Padula, daniele.padula@unisi.it
; 8ring-locked 11-cis retinal protonated Schiff base (rPSB) include topology.
;
 [ moleculetype ]
; Name     nrexcl
  R8R        3
 
 [ atoms ]
; nr  type  resnr residue  atom  cgnr    charge     mass
   1   C1    1    R8R       C1    1     0.621684   12.0110
   2   C2    1    R8R       C2    2    -0.189660   12.0110
   3   H2    1    R8R       H21   3     0.044732    1.0079
   4   H2    1    R8R       H22   4     0.044732    1.0079
   5   C3    1    R8R       C3    5     0.017567   12.0110
   6   H3    1    R8R       H31   6     0.029993    1.0079
   7   H3    1    R8R       H32   7     0.029993    1.0079
   8   C4    1    R8R       C4    8    -0.192787   12.0110
   9   H4    1    R8R       H41   9     0.071258    1.0079
   10  H4    1    R8R       H42   10    0.071258    1.0079
   11  C5    1    R8R       C5    11    0.315984   12.0110
   12  C6    1    R8R       C6    12   -0.500040   12.0110
   13  C7    1    R8R       C7    13    0.145057   12.0110
   14  H7    1    R8R       H7    14    0.127445    1.0079
   15  C8    1    R8R       C8    15   -0.349546   12.0110
   16  H8    1    R8R       H8    16    0.191255    1.0079
   17  C9    1    R8R       C9    17    0.237490   12.0110
   18 C10    1    R8R      C10    18   -0.147159   12.0110
   19 C81    1    R8R      C81    19   -0.119472   12.0110
   20 C11    1    R8R      C11    20    0.052670   12.0110
   21 H11    1    R8R      H11    21    0.150161    1.0079
   22 C12    1    R8R      C12    22   -0.429876   12.0110
   23 H12    1    R8R      H12    23    0.181245    1.0079
   24 C13    1    R8R      C13    24    0.408602   12.0110
   25 C14    1    R8R      C14    25   -0.560142   12.0110
   26 H14    1    R8R      H14    26    0.211244    1.0079
   27 C15    1    R8R      C15    27    0.267595   12.0110
   28 H15    1    R8R      H15    28    0.180932    1.0079
   29 CT1    1    R8R      CT1    29   -0.471638   12.0110
   30 HT1    1    R8R      HT11   30    0.107057    1.0079
   31 HT1    1    R8R      HT12   31    0.107057    1.0079
   32 HT1    1    R8R      HT13   32    0.107057    1.0079
   33 CT1    1    R8R      CT2    33   -0.471638   12.0110
   34 HT1    1    R8R      HT21   34    0.107057    1.0079
   35 HT1    1    R8R      HT22   35    0.107057    1.0079
   36 HT1    1    R8R      HT23   36    0.107057    1.0079
   37 CT2    1    R8R      CT3    37   -0.400155   12.0110
   38 HT2    1    R8R      HT31   38    0.111548    1.0079
   39 HT2    1    R8R      HT32   39    0.111548    1.0079
   40 HT2    1    R8R      HT33   40    0.111548    1.0079
   41 CT3    1    R8R      CT4    41   -0.300697   12.0110
   42 HT3    1    R8R      HT41   42    0.101046    1.0079
   43 HT3    1    R8R      HT42   43    0.101046    1.0079
   44 HT3    1    R8R      HT43   44    0.101046    1.0079
   45 C84    1    R8R      C84    45   -0.129169   12.0110
   46 H84    1    R8R      H841   46    0.059679    1.0079
   47 H84    1    R8R      H842   47    0.059679    1.0079
   48 C83    1    R8R      C83    48    0.107143   12.0110
   49 H83    1    R8R      H831   49   -0.019091    1.0079
   50 H83    1    R8R      H832   50   -0.019091    1.0079
   51 C82    1    R8R      C82    51    0.063421   12.0110
   52 H82    1    R8R      H821   52   -0.004635    1.0079
   53 H82    1    R8R      H822   53   -0.004635    1.0079
   54 H81    1    R8R      H811   54    0.067683    1.0079
   55 H81    1    R8R      H812   55    0.067683    1.0079
   56 CT5    1    R8R      CT5    56   -0.080392   12.0110
   57 HT5    1    R8R      HT5    57    0.099200    1.0079
   58 HT5    1    R8R      HT5    58    0.099200    1.0079
   59 HT5    1    R8R      HT5    59    0.099200    1.0079
   60  NZ    1    R8R       NZ    60   -0.373703   14.0070
   61  HZ    1    R8R       HZ    61    0.359615    1.0079
 
; Stretchings
[ bonds ]
; ring C-C
      1     2   1     0.1535     204051.046     ;        1        C1-C2  
      2     5   1     0.1520     235311.706     ;        2        C2-C3  
      5     8   1     0.1523     233362.604     ;        3        C3-C4  
      8    11   1     0.1509     205854.638     ;        4        C4-C5  
     11    12   1     0.1366     398905.802     ;        5        C5=C6  
      1    12   1     0.1532     210749.975     ;        6        C1-C6  
; chain C-C
     12    13   1     0.1458     252974.647     ;        7        C6-C7  
     13    15   1     0.1367     395621.394     ;        8        C7=C8  
     15    17   1     0.1439     267943.627     ;        9        C8-C9  
     17    18   1     0.1395     370702.986     ;        10       C9=C10 
     18    20   1     0.1434     292718.651     ;        11       C10=C11
     20    22   1     0.1379     389003.330     ;        12       C11=C12
     22    24   1     0.1423     315906.399     ;        13       C12-C13
     24    25   1     0.1394     389417.479     ;        14       C13=C14
     25    27   1     0.1397     360382.561     ;        15       C14=C15
     27    60   1     0.1323     450537.107     ;        16       C15=NZ 
; ring C-CH3
      1    29   1     0.1537     195017.086     ;        17       C1-CT1 
      1    33   1     0.1536     195017.086     ;        18       C1-CT1 
     11    37   1     0.1507     231865.183     ;        19       C5-CT2 
; chain C-CH3
     17    41   1     0.1507     213497.775     ;        20       C9-CT3 
     56    60   1     0.1461     252307.568     ;        21       CT5-NZ 
; 8 ring
     18    19   1     0.1520     200332.735     ;        22       C10-C81
     19    51   1     0.1536     231492.390     ;        23       C81-C82
     48    51   1     0.1524     242400.533     ;        24       C82-C83
     45    48   1     0.1543     217742.446     ;        25       C83-C84
     24    45   1     0.1511     222339.723     ;        26       C13-C84
; ring C-H
      2     3   1     0.1098     316758.586     ;        27       C2-H2  
      2     4   1     0.1099     316758.586     ;        28       C2-H2  
      5     6   1     0.1095     322842.390     ;        29       C3-H3  
      5     7   1     0.1096     322842.390     ;        30       C3-H3  
      8     9   1     0.1098     313698.311     ;        31       C4-H4  
      8    10   1     0.1102     313698.311     ;        32       C4-H4  
; chain C-H
     13    14   1     0.1090     339129.324     ;        33       C7-H7  
     15    16   1     0.1085     347048.019     ;        34       C8-H8  
     20    21   1     0.1090     335725.340     ;        35       C11-H11
     22    23   1     0.1090     334744.030     ;        36       C12-H12
     25    26   1     0.1090     335794.544     ;        37       C14-H14
     27    28   1     0.1088     345943.747     ;        38       C15-H15
     60    61   1     0.1019     425693.415     ;        39       NZ-HZ  
; 8 ring C-H
     19    54   1     0.1096     321180.817     ;        40       C81-H81
     19    55   1     0.1095     321180.817     ;        41       C81-H81
     51    52   1     0.1096     321281.984     ;        42       C82-H82
     51    53   1     0.1097     321281.984     ;        43       C82-H82
     48    49   1     0.1097     319943.497     ;        44       C83-H83
     48    50   1     0.1096     319943.497     ;        45       C83-H83
     45    46   1     0.1095     323220.946     ;        46       C84-H84
     45    47   1     0.1095     323220.946     ;        47       C84-H84
; methyl C-H
     29    30   1     0.1095     327017.922     ;        48       CT1-HT1
     29    31   1     0.1093     327017.922     ;        49       CT1-HT1
     29    32   1     0.1096     327017.922     ;        50       CT1-HT1
     33    34   1     0.1095     327017.922     ;        51       CT1-HT1
     33    35   1     0.1096     327017.922     ;        52       CT1-HT1
     33    36   1     0.1095     327017.922     ;        53       CT1-HT1
     37    38   1     0.1095     326646.201     ;        54       CT2-HT2
     37    39   1     0.1091     326646.201     ;        55       CT2-HT2
     37    40   1     0.1098     326646.201     ;        56       CT2-HT2
     41    42   1     0.1090     331342.285     ;        57       CT3-HT3
     41    43   1     0.1093     331342.285     ;        58       CT3-HT3
     41    44   1     0.1096     331342.285     ;        59       CT3-HT3
     56    57   1     0.1092     336156.698     ;        60       CT5-HT5
     56    58   1     0.1090     336156.698     ;        61       CT5-HT5
     56    59   1     0.1092     336156.698     ;        62       CT5-HT5
 
; Bendings
[ angles ]
; C-C-C ring
      1    2    5   1    112.52     708.9259     ;        63       C1-C2-C3  
      2    5    8   1    109.39     693.6209     ;        64       C2-C3-C4  
      5    8   11   1    113.85     560.8436     ;        65       C3-C4-C5  
      8   11   12   1    121.88     410.3617     ;        66       C4-C5=C6  
      1   12   11   1    123.17     328.8140     ;        67       C1-C6=C5  
      2    1   12   1    110.34     634.7341     ;        68       C6-C1-C2  
; C-C-C chain
      1   12   13   1    114.33     668.6086     ;        69       C1-C6-C7  
     11   12   13   1    122.44     538.3957     ;        70       C5=C6-C7  
     12   13   15   1    125.34     465.8317     ;        71       C6-C7=C8  
     13   15   17   1    124.47     654.3607     ;        72       C7=C8-C9  
     15   17   18   1    120.50     418.5722     ;        73       C8-C9=C10 
     17   18   20   1    120.34     444.5749     ;        74       C9=C10=C11
     18   20   22   1    126.51     549.0686     ;        75       C10=C11=C1
     20   22   24   1    126.44     410.1541     ;        76       C11=C12-C1
     22   24   25   1    117.56     695.7798     ;        77       C12-C13=C1
     24   25   27   1    123.93     589.5045     ;        78       C13=C14=C1
     25   27   60   1    124.11     869.4389     ;        79       C14=C15=NZ
; C-C-CH3 ring
      2    1   29   1    110.19     724.8514     ;        80       CT1-C1-C2 
      2    1   33   1    107.72     724.8514     ;        81       CT1-C1-C2 
     12    1   29   1    109.84     779.0409     ;        82       CT1-C1-C6 
     12    1   33   1    109.80     779.0409     ;        83       CT1-C1-C6 
      8   11   37   1    113.62     672.0011     ;        84       C4-C5-CT2 
     12   11   37   1    124.50     533.3183     ;        85       CT2-C5=C6 
     29    1   33   1    108.90     678.9223     ;        86       CT1-C1-CT1
; C-C-CH3 chain
     15   17   41   1    117.45     412.6147     ;        87       C8-C9-CT3 
     18   17   41   1    121.96     450.8971     ;        88       CT3-C9=C10
     27   60   56   1    125.22     624.6026     ;        89       C15=NZ-CT5
; C-C-C 8 ring
     17   18   19   1    120.78     472.5709     ;        90       C9=C10-C81
     19   18   20   1    118.59     423.4835     ;        91       C11-C10-C8
     18   19   51   1    116.10     734.5554     ;        92       C10-C81-C8
     19   51   48   1    112.62     808.9772     ;        93       C81-C82-C8
     45   48   51   1    112.48     784.8861     ;        94       C84-C83-C8
     24   45   48   1    115.24     802.6875     ;        95       C13-C84-C8
     22   24   45   1    121.09     430.9337     ;        96       C12-C13-C8
     25   24   45   1    121.03     366.1822     ;        97       C84-C13-C1
; C-C-H ring
      1    2    3   1    108.70     416.2749     ;        98       C1-C2-H2  
      1    2    4   1    108.78     416.2749     ;        99       C1-C2-H2  
      3    2    5   1    111.21     382.7583     ;        100      C3-C2-H2  
      4    2    5   1    108.75     382.7583     ;        101      C3-C2-H2  
      2    5    6   1    110.40     398.3489     ;        102      C2-C3-H3  
      2    5    7   1    110.65     398.3489     ;        103      C2-C3-H3  
      6    5    8   1    109.72     404.7030     ;        104      C4-C3-H3  
      7    5    8   1    110.07     404.7030     ;        105      C4-C3-H3  
      5    8    9   1    110.43     400.2136     ;        106      C3-C4-H4  
      5    8   10   1    109.81     400.2136     ;        107      C3-C4-H4  
      9    8   11   1    108.87     388.8730     ;        108      C5-C4-H4  
     10    8   11   1    108.11     388.8730     ;        109      C5-C4-H4  
; C-C-H chain
     12   13   14   1    116.16     379.6691     ;        110      C6-C7-H7  
     14   13   15   1    118.34     343.8165     ;        111      C8=C7-H7  
     13   15   16   1    116.91     333.3431     ;        112      C7=C8-H8  
     16   15   17   1    118.58     353.2894     ;        113      C9-C8-H8  
     18   20   21   1    117.47     306.0521     ;        114      C10=C11-H1
     21   20   22   1    115.63     387.4477     ;        115      C12=C11-H1
     20   22   23   1    117.08     393.3433     ;        116      C11=C12-H1
     23   22   24   1    116.22     317.7536     ;        117      C13=C12-H1
     24   25   26   1    118.33     349.0930     ;        118      C13=C14-H1
     26   25   27   1    117.71     363.3566     ;        119      C15=C14-H1
     25   27   28   1    120.99     307.8535     ;        120      C14=C15-H1
     28   27   60   1    114.89     393.4254     ;        121      NZ=C15-H15
     27   60   61   1    117.85     372.1700     ;        122      C15=NZ-HZ 
     56   60   61   1    116.93     340.0120     ;        123      CT5-NZ-HZ 
; C-C-H 8 ring
     18   19   54   1    108.49     430.8499     ;        124      C10-C81-H8
     18   19   55   1    107.57     430.8499     ;        125      C10-C81-H8
     19   51   52   1    109.38     391.4957     ;        126      C81-C82-H8
     19   51   53   1    109.56     391.4957     ;        127      C81-C82-H8
     51   19   54   1    109.31     404.5088     ;        128      H81-C81-C8
     51   19   55   1    109.34     404.5088     ;        129      H81-C81-C8
     49   48   51   1    109.72     412.4947     ;        130      C82-C83-H8
     50   48   51   1    109.09     412.4947     ;        131      C82-C83-H8
     48   51   52   1    108.84     416.9940     ;        132      C83-C82-H8
     48   51   53   1    109.55     416.9940     ;        133      C83-C82-H8
     46   45   48   1    109.64     409.8310     ;        134      C83-C84-H8
     47   45   48   1    109.20     409.8310     ;        135      C83-C84-H8
     45   48   49   1    109.68     411.1052     ;        136      C84-C83-H8
     45   48   50   1    108.87     411.1052     ;        137      C84-C83-H8
     24   45   46   1    107.77     469.1775     ;        138      C13-C84-H8
     24   45   47   1    108.80     469.1775     ;        139      C13-C84-H8
; C-C-H methyl
      1   29   30   1    111.66     387.1578     ;        140      C1-CT1-HT1
      1   29   31   1    111.58     387.1578     ;        141      C1-CT1-HT1
      1   29   32   1    109.91     387.1578     ;        142      C1-CT1-HT1
      1   33   34   1    112.17     387.1578     ;        143      C1-CT1-HT1
      1   33   35   1    109.75     387.1578     ;        144      C1-CT1-HT1
      1   33   36   1    110.70     387.1578     ;        145      C1-CT1-HT1
     11   37   38   1    109.52     378.8208     ;        146      C5-CT2-HT2
     11   37   39   1    113.07     378.8208     ;        147      C5-CT2-HT2
     11   37   40   1    110.99     378.8208     ;        148      C5-CT2-HT2
     17   41   42   1    112.98     388.5556     ;        149      C9-CT3-HT3
     17   41   43   1    110.61     388.5556     ;        150      C9-CT3-HT3
     17   41   44   1    110.21     388.5556     ;        151      C9-CT3-HT3
; H-C-H
      3    2    4   1    106.69     365.8675     ;        152      H2-C2-H2  
      6    5    7   1    106.57     371.7415     ;        153      H3-C3-H3  
      9    8   10   1    105.41     365.8998     ;        154      H4-C4-H4  
     54   19   55   1    105.51     387.1465     ;        155      H81-C81-H8
     52   51   53   1    106.71     369.7355     ;        156      H82-C82-H8
     49   48   50   1    106.84     371.8062     ;        157      H83-C83-H8
     46   45   47   1    105.78     387.3498     ;        158      H84-C84-H8
     30   29   31   1    107.76     357.4637     ;        159      HT1-CT1-HT
     30   29   32   1    107.35     357.4637     ;        160      HT1-CT1-HT
     31   29   32   1    108.42     357.4637     ;        161      HT1-CT1-HT
     34   33   35   1    107.68     357.4637     ;        162      HT1-CT1-HT
     34   33   36   1    108.23     357.4637     ;        163      HT1-CT1-HT
     35   33   36   1    108.17     357.4637     ;        164      HT1-CT1-HT
     38   37   39   1    108.36     361.9793     ;        165      HT2-CT2-HT
     38   37   40   1    106.47     361.9793     ;        166      HT2-CT2-HT
     39   37   40   1    108.18     361.9793     ;        167      HT2-CT2-HT
     42   41   43   1    108.60     357.7559     ;        168      HT3-CT3-HT
     42   41   44   1    106.71     357.7559     ;        169      HT3-CT3-HT
     43   41   44   1    107.51     357.7559     ;        170      HT3-CT3-HT
     58   56   59   1    109.38     351.5705     ;        171      HT5-CT5-HT
     57   56   58   1    109.36     351.5705     ;        172      HT5-CT5-HT
     57   56   59   1    109.55     351.5705     ;        173      HT5-CT5-HT
; N-C-H
     58   56   60   1    108.79     488.5368     ;        174      NZ-CT5-HT5
     59   56   60   1    109.88     488.5368     ;        175      NZ-CT5-HT5
     57   56   60   1    109.86     488.5368     ;        176      NZ-CT5-HT5
 
 
; Torsions
[ dihedrals ]
; --------------------------------
;        stiff dihedrals
; --------------------------------
; missing coordinate: thanks JCTC reviewer!
     15  14  12  13   2      0.0    712.666     ;     177     
; C-C=C-C   chain backbone
      8  11  12  13   2    180.0    310.612     ;     178     C4-C5=C6-C7         
     37  11  12  13   2      0.0     39.665     ;     179     CT2-C5=C6-C7        
; left 6-ring "starlike"
     11   8  12  37   2      0.0    592.228     ;     180     C5-C4--C6--CT2       *
     12   1  11  13   2     -2.0    244.212     ;     181     C6-C1--C5--C7        *
; phi2* = pyramid
     17  15  18  41   2      2.0    530.821     ;     182     C9-C8--C10--CT3      *
; phi3L  (old delta 3)
     17  18  20  22   2    155.0     20.000     ;     183 
; phi3L*  <--- pyramid also employed for 6 ring
     20  17  19  18   2      4.0    410.368     ;     184     C10-C81--C9--C1      *
; phi3R*  <--- pyramid also employed for 6 ring
     24  22  25  45   2     -4.0    610.243     ;     185 
; C-C=C-H o.o.p
     17  13  16  15   2      0.0    693.481     ;     186     C8-H8--C7--C9        *
     27  24  26  25   2      0.0    366.029     ;     187     C14-H14--C13--C      *
     60  25  28  27   2      0.0    654.892     ;     188 
; C-C=C-H o.o.p (8R)
     20  18  22  21   2     -4.0    536.741     ;     189 
     22  20  23  24   2     -4.0    448.900     ;     190 
; C-N=C-H o.o.p
     61  27  56  60   2      0.0    289.353     ;     191     NZ-CT5--C15--HZ      *
; --------------------------------
; flexible dihedrals
; --------------------------------
; left 6-ring C-C-C-C dihedrals
      1   2   5   8   1      0.00          0.651   3     ;     192     C1-C2-C3-C4         
      2   5   8  11   1      0.00          0.651   3     ;     193     C2-C3-C4-C5         
      5   8  11  12   1      0.00          0.651   3     ;     194     C3-C4-C5=C6         
      8  11  12   1   1      0.00          0.651   3     ;     195     C4-C5=C6-C1         
      2   1  12  11   1      0.00          0.651   3     ;     196     C5=C6-C1-C2         
     12   1   2   5   1      0.00          0.651   3     ;     197     C6-C1-C2-C3         
; left 6-ring C-C-C-CH3 dihedrals
     33   1   2   5   1      0.00          0.651   3     ;     197     CT1-C1-C2-C3        
     29   1  12  11   1      0.00          0.651   3     ;     198     CT1-C1-C6=C5        
     33   1  12  11   1      0.00          0.651   3     ;     199     CT1-C1-C6=C5        
     29   1  12  13   1      0.00          0.651   3     ;     200     CT1-C1-C6-C7        
     33   1  12  13   1      0.00          0.651   3     ;     201     CT1-C1-C6-C7        
      5   8  11  37   1      0.00          0.651   3     ;     202     C3-C4-C5-CT2        
      2   1  12  13   1      0.00          0.651   3     ;     203     C7-C6-C1-C2         
     37  11  12   1   1      0.00          0.651   3     ;     204     C1-C6=C5-CT2        
     29   1   2   5   1      0.00          0.651   3     ;     205     CT1-C1-C2-C3        
; left 6-ring C-C-C-H  dihedrals
      3   2   5   8   1      0.00          0.651   3     ;     206     C4-C3-C2-H2         
      4   2   5   8   1      0.00          0.651   3     ;     207     C4-C3-C2-H2         
     12   1   2   3   1      0.00          0.651   3     ;     208     C6-C1-C2-H2         
     12   1   2   4   1      0.00          0.651   3     ;     209     C6-C1-C2-H2         
      1   2   5   6   1      0.00          0.651   3     ;     210     C1-C2-C3-H3         
      1   2   5   7   1      0.00          0.651   3     ;     211     C1-C2-C3-H3         
      6   5   8  11   1      0.00          0.651   3     ;     212     C5-C4-C3-H3         
      7   5   8  11   1      0.00          0.651   3     ;     213     C5-C4-C3-H3         
      2   5   8   9   1      0.00          0.651   3     ;     214     C2-C3-C4-H4         
      2   5   8  10   1      0.00          0.651   3     ;     215     C2-C3-C4-H4         
      9   8  11  12   1      0.00          0.651   3     ;     216     C6=C5-C4-H4         
     10   8  11  12   1      0.00          0.651   3     ;     217     C6=C5-C4-H4         
; C-C-C-H   ring (methyls) dihedral
     29   1   2   3   1      0.00          0.651   3     ;     218     CT1-C1-C2-H2        
     29   1   2   4   1      0.00          0.651   3     ;     219     CT1-C1-C2-H2        
     33   1   2   3   1      0.00          0.651   3     ;     220     CT1-C1-C2-H2        
     33   1   2   4   1      0.00          0.651   3     ;     221     CT1-C1-C2-H2        
      9   8  11  37   1      0.00          0.651   3     ;     222     CT2-C5-C4-H4        
     10   8  11  37   1      0.00          0.651   3     ;     223     CT2-C5-C4-H4        
     29   1  33  34   1      0.00          0.651   3     ;     224     HT1-CT1-C1-CT1      
     29   1  33  35   1      0.00          0.651   3     ;     225     HT1-CT1-C1-CT1      
     29   1  33  36   1      0.00          0.651   3     ;     226     HT1-CT1-C1-CT1      
; H-C-C-H   ring dihedrals
      3   2   5   6   1      0.00          0.651   3     ;     227     H3-C3-C2-H2         
      3   2   5   7   1      0.00          0.651   3     ;     228     H3-C3-C2-H2         
      4   2   5   6   1      0.00          0.651   3     ;     229     H3-C3-C2-H2         
      4   2   5   7   1      0.00          0.651   3     ;     230     H3-C3-C2-H2         
      6   5   8   9   1      0.00          0.651   3     ;     231     H4-C4-C3-H3         
      6   5   8  10   1      0.00          0.651   3     ;     232     H4-C4-C3-H3         
      7   5   8   9   1      0.00          0.651   3     ;     233     H4-C4-C3-H3         
      7   5   8  10   1      0.00          0.651   3     ;     234     H4-C4-C3-H3         
      2   1  29  30   1      0.00          0.651   3     ;     235     HT1-CT1-C1-C2       
      2   1  29  31   1      0.00          0.651   3     ;     236     HT1-CT1-C1-C2       
      2   1  29  32   1      0.00          0.651   3     ;     237     HT1-CT1-C1-C2       
      2   1  33  34   1      0.00          0.651   3     ;     238     HT1-CT1-C1-C2       
      2   1  33  35   1      0.00          0.651   3     ;     239     HT1-CT1-C1-C2       
      2   1  33  36   1      0.00          0.651   3     ;     240     HT1-CT1-C1-C2       
     12   1  29  30   1      0.00          0.651   3     ;     241     HT1-CT1-C1-C6       
     12   1  29  31   1      0.00          0.651   3     ;     242     HT1-CT1-C1-C6       
     12   1  29  32   1      0.00          0.651   3     ;     243     HT1-CT1-C1-C6       
     12   1  33  34   1      0.00          0.651   3     ;     244     HT1-CT1-C1-C6       
     12   1  33  35   1      0.00          0.651   3     ;     245     HT1-CT1-C1-C6       
     12   1  33  36   1      0.00          0.651   3     ;     246     HT1-CT1-C1-C6       
; 8-ring C-C-C-C dihedrals
     22  24  45  48   1      0.00          0.651   3     ;     247     C12-C13-C84-C83     
     24  45  48  51   1      0.00          0.651   3     ;     248     C13-C84-C83-C82     
     45  48  51  19   1      0.00          0.651   3     ;     249     C84-C83-C82-C81     
     18  19  51  48   1      0.00          0.651   3     ;     250     C10-C81-C82-C83     
     20  18  19  51   1      0.00          0.651   3     ;     251     C11=C10-C81-C82     
     17  18  19  51   1      0.00          0.651   3     ;     252     C9-C10-C81-C82      
; 8-ring C-C-C-H
     20  18  19  54   1      0.00          0.651   3     ;     253     C11=C10-C81-H81     
     20  18  19  55   1      0.00          0.651   3     ;     254     C11=C10-C81-H81     
     54  19  51  48   1      0.00          0.651   3     ;     255     H81-C81-C82-C83     
     55  19  51  48   1      0.00          0.651   3     ;     256     H81-C81-C82-C83     
     18  19  51  52   1      0.00          0.651   3     ;     257     C10-C81-C82-H82     
     18  19  51  53   1      0.00          0.651   3     ;     258     C10-C81-C82-H82     
     45  48  51  52   1      0.00          0.651   3     ;     259     C84-C83-C82-H82     
     45  48  51  53   1      0.00          0.651   3     ;     260     C84-C83-C82-H82     
     49  48  51  19   1      0.00          0.651   3     ;     261     C81-C82-C83-H83     
     50  48  51  19   1      0.00          0.651   3     ;     262     C81-C82-C83-H83     
     24  45  48  49   1      0.00          0.651   3     ;     263     C13-C84-C83-H83     
     24  45  48  50   1      0.00          0.651   3     ;     264     C13-C84-C83-H83     
     46  45  48  51   1      0.00          0.651   3     ;     265     C82-C83-C84-H84     
     47  45  48  51   1      0.00          0.651   3     ;     266     C82-C83-C84-H84     
     22  24  45  46   1      0.00          0.651   3     ;     267     C12-C13-C84-H84     
     22  24  45  47   1      0.00          0.651   3     ;     268     C12-C13-C84-H84     
     25  24  45  46   1      0.00          0.651   3     ;     269     H84-C84-C13-C14     
     25  24  45  47   1      0.00          0.651   3     ;     270     H84-C84-C13-C14     
; 8-ring H-C-C-H
     54  19  51  52   1      0.00          0.651   3     ;     271     H81-C81-C82-H82     
     55  19  51  52   1      0.00          0.651   3     ;     272     H81-C81-C82-H82     
     54  19  51  53   1      0.00          0.651   3     ;     273     H81-C81-C82-H82     
     55  19  51  53   1      0.00          0.651   3     ;     274     H81-C81-C82-H82     
     49  48  51  52   1      0.00          0.651   3     ;     275     H82-C82-C83-H83     
     49  48  51  53   1      0.00          0.651   3     ;     276     H82-C82-C83-H83     
     50  48  51  52   1      0.00          0.651   3     ;     277     H82-C82-C83-H83     
     50  48  51  53   1      0.00          0.651   3     ;     278     H82-C82-C83-H83     
     46  45  48  49   1      0.00          0.651   3     ;     279     H83-C83-C84-H84     
     46  45  48  50   1      0.00          0.651   3     ;     280     H83-C83-C84-H84     
     47  45  48  49   1      0.00          0.651   3     ;     281     H83-C83-C84-H84     
     47  45  48  50   1      0.00          0.651   3     ;     282     H83-C83-C84-H84     
; methyl rotation
     33   1  29  30   1      0.00          0.651   3     ;     283     CT1-C1-CT1-HT1      
     33   1  29  31   1      0.00          0.651   3     ;     284     CT1-C1-CT1-HT1      
     33   1  29  32   1      0.00          0.651   3     ;     285     CT1-C1-CT1-HT1      
      8  11  37  38   1      0.00          0.651   3     ;     286     C4-C5-CT2-HT2       
      8  11  37  39   1      0.00          0.651   3     ;     287     C4-C5-CT2-HT2       
      8  11  37  40   1      0.00          0.651   3     ;     288     C4-C5-CT2-HT2       
     12  11  37  38   1      0.00          0.651   3     ;     289     HT2-CT2-C5=C6       
     12  11  37  39   1      0.00          0.651   3     ;     290     HT2-CT2-C5=C6       
     12  11  37  40   1      0.00          0.651   3     ;     291     HT2-CT2-C5=C6       
     15  17  41  42   1      0.00          0.651   3     ;     292     HT3-CT3-C9=C10      
     15  17  41  43   1      0.00          0.651   3     ;     293     HT3-CT3-C9=C10      
     15  17  41  44   1      0.00          0.651   3     ;     294     HT3-CT3-C9=C10      
     57  56  60  27   1    180.00          0.651   3     ;     295     C15=NZ-CT5-HT5      
; external fits (assigned)
; phi3R (old delta4)
     20  22  24  25   1      0.00          0.651   3     ;     297     C12=C11=C10-C81     
; phi3
     18  20  22  24   1      0.00         29.500   0
     18  20  22  24   1      0.00        -47.056   1     ;     299     C10=C11=C12-C13     
     18  20  22  24   1    180.00         27.615   2     ;     300     C10=C11=C12-C13     
     18  20  22  24   1      0.00         23.861   3     ;     301     C10=C11=C12-C13     
; phi around C=C
; phi1
     12  13  15  17   1      0.00         23.500   0
     12  13  15  17   1      0.00          7.146   1     ;     303     C6-C7=C8-C9         
     12  13  15  17   1      0.00        -53.443   2     ;     304     C6-C7=C8-C9         
     12  13  15  17   1      0.00         -0.356   3     ;     305     C6-C7=C8-C9         
     12  13  15  17   1      0.00         11.196   4     ;     306     C6-C7=C8-C9         
     12  13  15  17   1      0.00          0.377   5     ;     307     C6-C7=C8-C9         
; phi2
     15  17  18  20   1      0.00         23.500   0
     15  17  18  20   1      0.00          5.438   1     ;     309     C8-C9=C10=C11       
     15  17  18  20   1      0.00        -50.616   2     ;     310     C8-C9=C10=C11       
     15  17  18  20   1      0.00         -2.053   3     ;     311     C8-C9=C10=C11       
     15  17  18  20   1      0.00          8.449   4     ;     312     C8-C9=C10=C11       
     15  17  18  20   1      0.00          1.939   5     ;     313     C8-C9=C10=C11       
; phi4
     22  24  25  27   1      0.00         23.500   0
     22  24  25  27   1      0.00          4.595   1     ;     315     C12-C13=C14=C15     
     22  24  25  27   1      0.00        -42.757   2     ;     316     C12-C13=C14=C15     
     22  24  25  27   1      0.00         -0.093   3     ;     317     C12-C13=C14=C15     
     22  24  25  27   1      0.00          5.358   4     ;     318     C12-C13=C14=C15     
     22  24  25  27   1      0.00         -0.260   5     ;     319     C12-C13=C14=C15     
; phi5
     25  27  60  56   1      0.00         23.500   0
     25  27  60  56   1      0.00        -36.996   2     ;     321     C84=C15=NZ-CT5      
     25  27  60  56   1      0.00          7.069   4     ;     322     C84=C15=NZ-CT5      
; delta around C-C
; delta 1
     11  12  13  15   1      0.00         23.500   0
     11  12  13  15   1      0.00         -1.217   1     ;     324     C5=C6-C7=C8         
     11  12  13  15   1      0.00         -1.388   2     ;     325     C5=C6-C7=C8         
     11  12  13  15   1      0.00          3.855   3     ;     326     C5=C6-C7=C8         
     11  12  13  15   1      0.00          0.833   4     ;     327     C5=C6-C7=C8         
     11  12  13  15   1      0.00          0.212   5     ;     328     C5=C6-C7=C8         
; delta 2
     13  15  17  18   1      0.00         23.500   0
     13  15  17  18   1      0.00          8.538   1     ;     330     C7=C8-C9=C10        
     13  15  17  18   1      0.00         -9.971   2     ;     331     C7=C8-C9=C10        
     13  15  17  18   1      0.00          2.376   3     ;     332     C7=C8-C9=C10        
     13  15  17  18   1      0.00          4.136   4     ;     333     C7=C8-C9=C10        
     13  15  17  18   1      0.00         -0.944   5     ;     334     C7=C8-C9=C10        
; delta 3
     24  25  27  60   1      0.00         23.500   0
     24  25  27  60   1      0.00          5.041   1     ;     336     C13=C14=C15=NZ      
     24  25  27  60   1      0.00        -32.631   2     ;     337     C13=C14=C15=NZ      
     24  25  27  60   1      0.00          3.173   3     ;     338     C13=C14=C15=NZ      
     24  25  27  60   1      0.00          7.614   4     ;     339     C13=C14=C15=NZ      
     24  25  27  60   1      0.00         -0.779   5     ;     340     C13=C14=C15=NZ      
 
 
; Nonbonded terms
[ pairs ]
; 1-4 interactions within 6-ring
  1     6   2    0.833     0.000     0.000      0.2486       0.0867000     ;  C1   -    H3 
  1     7   2    0.833     0.000     0.000      0.2486       0.0867000     ;  C1   -    H3 
  1     8   2    0.833     0.000     0.000      0.3332       0.2288700     ;  C1   -    C4 
  1    37   2    0.833     0.000     0.000      0.3366       0.2288700     ;  C1   -    CT2
  2     9   2    0.833     0.000     0.000      0.2486       0.0867000     ;  C2   -    H4 
  2    10   2    0.833     0.000     0.000      0.2486       0.0867000     ;  C2   -    H4 
  2    11   2    0.833     0.000     0.000      0.3332       0.2029200     ;  C2   -    C5 
  2    30   2    0.833     0.000     0.000      0.2486       0.0867000     ;  C2   -    HT1
  2    31   2    0.833     0.000     0.000      0.2486       0.0867000     ;  C2   -    HT1
  2    32   2    0.833     0.000     0.000      0.2486       0.0867000     ;  C2   -    HT1
  2    34   2    0.833     0.000     0.000      0.2486       0.0867000     ;  C2   -    HT1
  2    35   2    0.833     0.000     0.000      0.2486       0.0867000     ;  C2   -    HT1
  2    36   2    0.833     0.000     0.000      0.2486       0.0867000     ;  C2   -    HT1
  3     6   2    0.833     0.000     0.000      0.1639       0.0328400     ;  H2   -    H3 
  3     7   2    0.833     0.000     0.000      0.1639       0.0328400     ;  H2   -    H3 
  3     8   2    0.833     0.000     0.000      0.2486       0.0867000     ;  H2   -    C4 
  3    12   2    0.833     0.000     0.000      0.2486       0.0768700     ;  H2   -    C6 
  3    29   2    0.833     0.000     0.000      0.2519       0.0867000     ;  H2   -    CT1
  3    33   2    0.833     0.000     0.000      0.2519       0.0867000     ;  H2   -    CT1
  4     6   2    0.833     0.000     0.000      0.1639       0.0328400     ;  H2   -    H3 
  4     7   2    0.833     0.000     0.000      0.1639       0.0328400     ;  H2   -    H3 
  4     8   2    0.833     0.000     0.000      0.2486       0.0867000     ;  H2   -    C4 
  4    12   2    0.833     0.000     0.000      0.2486       0.0768700     ;  H2   -    C6 
  4    29   2    0.833     0.000     0.000      0.2519       0.0867000     ;  H2   -    CT1
  4    33   2    0.833     0.000     0.000      0.2519       0.0867000     ;  H2   -    CT1
  5    12   2    0.833     0.000     0.000      0.3332       0.2029200     ;  C3   -    C6 
  5    29   2    0.833     0.000     0.000      0.3366       0.2288700     ;  C3   -    CT1
  5    33   2    0.833     0.000     0.000      0.3366       0.2288700     ;  C3   -    CT1
  5    37   2    0.833     0.000     0.000      0.3366       0.2288700     ;  C3   -    CT2
  6     9   2    0.833     0.000     0.000      0.1639       0.0328400     ;  H3   -    H4 
  6    10   2    0.833     0.000     0.000      0.1639       0.0328400     ;  H3   -    H4 
  6    11   2    0.833     0.000     0.000      0.2486       0.0768700     ;  H3   -    C5 
  7     9   2    0.833     0.000     0.000      0.1639       0.0328400     ;  H3   -    H4 
  7    10   2    0.833     0.000     0.000      0.1639       0.0328400     ;  H3   -    H4 
  7    11   2    0.833     0.000     0.000      0.2486       0.0768700     ;  H3   -    C5 
  8    13   2    0.833     0.000     0.000      0.3332       0.2029200     ;  C4   -    C7 
  8    38   2    0.833     0.000     0.000      0.2486       0.0867000     ;  C4   -    HT2
  8    39   2    0.833     0.000     0.000      0.2486       0.0867000     ;  C4   -    HT2
  8    40   2    0.833     0.000     0.000      0.2486       0.0867000     ;  C4   -    HT2
  9    12   2    0.833     0.000     0.000      0.2486       0.0768700     ;  H4   -    C6 
  9    37   2    0.833     0.000     0.000      0.2519       0.0867000     ;  H4   -    CT2
 10    12   2    0.833     0.000     0.000      0.2486       0.0768700     ;  H4   -    C6 
 10    37   2    0.833     0.000     0.000      0.2519       0.0867000     ;  H4   -    CT2
 11    29   2    0.833     0.000     0.000      0.3366       0.2029200     ;  C5   -    CT1
 11    33   2    0.833     0.000     0.000      0.3366       0.2029200     ;  C5   -    CT1
 12    30   2    0.833     0.000     0.000      0.2486       0.0768700     ;  C6   -    HT1
 12    31   2    0.833     0.000     0.000      0.2486       0.0768700     ;  C6   -    HT1
 12    32   2    0.833     0.000     0.000      0.2486       0.0768700     ;  C6   -    HT1
 12    34   2    0.833     0.000     0.000      0.2486       0.0768700     ;  C6   -    HT1
 12    35   2    0.833     0.000     0.000      0.2486       0.0768700     ;  C6   -    HT1
 12    36   2    0.833     0.000     0.000      0.2486       0.0768700     ;  C6   -    HT1
 12    38   2    0.833     0.000     0.000      0.2486       0.0768700     ;  C6   -    HT2
 12    39   2    0.833     0.000     0.000      0.2486       0.0768700     ;  C6   -    HT2
 12    40   2    0.833     0.000     0.000      0.2486       0.0768700     ;  C6   -    HT2
; other nb interactions within 6-ring
  1     9   2    1.000     0.000     0.000      0.2486       0.1734000     ;  C1   -    H4 
  1    10   2    1.000     0.000     0.000      0.2486       0.1734000     ;  C1   -    H4 
  1    38   2    1.000     0.000     0.000      0.2486       0.1734000     ;  C1   -    HT2
  1    39   2    1.000     0.000     0.000      0.2486       0.1734000     ;  C1   -    HT2
  1    40   2    1.000     0.000     0.000      0.2486       0.1734000     ;  C1   -    HT2
  3     9   2    1.000     0.000     0.000      0.1639       0.0656900     ;  H2   -    H4 
  3    10   2    1.000     0.000     0.000      0.1639       0.0656900     ;  H2   -    H4 
  3    11   2    1.000     0.000     0.000      0.2486       0.1537400     ;  H2   -    C5 
  3    30   2    1.000     0.000     0.000      0.1639       0.0656900     ;  H2   -    HT1
  3    31   2    1.000     0.000     0.000      0.1639       0.0656900     ;  H2   -    HT1
  3    32   2    1.000     0.000     0.000      0.1639       0.0656900     ;  H2   -    HT1
  3    34   2    1.000     0.000     0.000      0.1639       0.0656900     ;  H2   -    HT1
  3    35   2    1.000     0.000     0.000      0.1639       0.0656900     ;  H2   -    HT1
  3    36   2    1.000     0.000     0.000      0.1639       0.0656900     ;  H2   -    HT1
  3    37   2    1.000     0.000     0.000      0.2519       0.1734000     ;  H2   -    CT2
  3    38   2    1.000     0.000     0.000      0.1639       0.0656900     ;  H2   -    HT2
  3    39   2    1.000     0.000     0.000      0.1639       0.0656900     ;  H2   -    HT2
  3    40   2    1.000     0.000     0.000      0.1639       0.0656900     ;  H2   -    HT2
  4    30   2    1.000     0.000     0.000      0.1639       0.0656900     ;  H2   -    HT1
  4    31   2    1.000     0.000     0.000      0.1639       0.0656900     ;  H2   -    HT1
  4    32   2    1.000     0.000     0.000      0.1639       0.0656900     ;  H2   -    HT1
  4    34   2    1.000     0.000     0.000      0.1639       0.0656900     ;  H2   -    HT1
  4    35   2    1.000     0.000     0.000      0.1639       0.0656900     ;  H2   -    HT1
  4    36   2    1.000     0.000     0.000      0.1639       0.0656900     ;  H2   -    HT1
  4    37   2    1.000     0.000     0.000      0.2519       0.1734000     ;  H2   -    CT2
  4    38   2    1.000     0.000     0.000      0.1639       0.0656900     ;  H2   -    HT2
  4    39   2    1.000     0.000     0.000      0.1639       0.0656900     ;  H2   -    HT2
  4    40   2    1.000     0.000     0.000      0.1639       0.0656900     ;  H2   -    HT2
  5    30   2    1.000     0.000     0.000      0.2486       0.1734000     ;  C3   -    HT1
  5    31   2    1.000     0.000     0.000      0.2486       0.1734000     ;  C3   -    HT1
  5    32   2    1.000     0.000     0.000      0.2486       0.1734000     ;  C3   -    HT1
  5    34   2    1.000     0.000     0.000      0.2486       0.1734000     ;  C3   -    HT1
  5    35   2    1.000     0.000     0.000      0.2486       0.1734000     ;  C3   -    HT1
  5    36   2    1.000     0.000     0.000      0.2486       0.1734000     ;  C3   -    HT1
  5    38   2    1.000     0.000     0.000      0.2486       0.1734000     ;  C3   -    HT2
  5    39   2    1.000     0.000     0.000      0.2486       0.1734000     ;  C3   -    HT2
  5    40   2    1.000     0.000     0.000      0.2486       0.1734000     ;  C3   -    HT2
  6    12   2    1.000     0.000     0.000      0.2486       0.1537400     ;  H3   -    C6 
  6    29   2    1.000     0.000     0.000      0.2519       0.1734000     ;  H3   -    CT1
  6    30   2    1.000     0.000     0.000      0.1639       0.0656900     ;  H3   -    HT1
  6    31   2    1.000     0.000     0.000      0.1639       0.0656900     ;  H3   -    HT1
  6    32   2    1.000     0.000     0.000      0.1639       0.0656900     ;  H3   -    HT1
  6    33   2    1.000     0.000     0.000      0.2519       0.1734000     ;  H3   -    CT1
  6    34   2    1.000     0.000     0.000      0.1639       0.0656900     ;  H3   -    HT1
  6    35   2    1.000     0.000     0.000      0.1639       0.0656900     ;  H3   -    HT1
  6    36   2    1.000     0.000     0.000      0.1639       0.0656900     ;  H3   -    HT1
  6    37   2    1.000     0.000     0.000      0.2519       0.1734000     ;  H3   -    CT2
  6    38   2    1.000     0.000     0.000      0.1639       0.0656900     ;  H3   -    HT2
  6    39   2    1.000     0.000     0.000      0.1639       0.0656900     ;  H3   -    HT2
  7    12   2    1.000     0.000     0.000      0.2486       0.1537400     ;  H3   -    C6 
  7    29   2    1.000     0.000     0.000      0.2519       0.1734000     ;  H3   -    CT1
  7    30   2    1.000     0.000     0.000      0.1639       0.0656900     ;  H3   -    HT1
  7    31   2    1.000     0.000     0.000      0.1639       0.0656900     ;  H3   -    HT1
  7    32   2    1.000     0.000     0.000      0.1639       0.0656900     ;  H3   -    HT1
  7    33   2    1.000     0.000     0.000      0.2519       0.1734000     ;  H3   -    CT1
  7    34   2    1.000     0.000     0.000      0.1639       0.0656900     ;  H3   -    HT1
  7    35   2    1.000     0.000     0.000      0.1639       0.0656900     ;  H3   -    HT1
  7    36   2    1.000     0.000     0.000      0.1639       0.0656900     ;  H3   -    HT1
  7    37   2    1.000     0.000     0.000      0.2519       0.1734000     ;  H3   -    CT2
  7    38   2    1.000     0.000     0.000      0.1639       0.0656900     ;  H3   -    HT2
  7    39   2    1.000     0.000     0.000      0.1639       0.0656900     ;  H3   -    HT2
  7    40   2    1.000     0.000     0.000      0.1639       0.0656900     ;  H3   -    HT2
  8    29   2    1.000     0.000     0.000      0.3366       0.4577300     ;  C4   -    CT1
  8    30   2    1.000     0.000     0.000      0.2486       0.1734000     ;  C4   -    HT1
  8    31   2    1.000     0.000     0.000      0.2486       0.1734000     ;  C4   -    HT1
  8    32   2    1.000     0.000     0.000      0.2486       0.1734000     ;  C4   -    HT1
  8    33   2    1.000     0.000     0.000      0.3366       0.4577300     ;  C4   -    CT1
  8    34   2    1.000     0.000     0.000      0.2486       0.1734000     ;  C4   -    HT1
  8    35   2    1.000     0.000     0.000      0.2486       0.1734000     ;  C4   -    HT1
  8    36   2    1.000     0.000     0.000      0.2486       0.1734000     ;  C4   -    HT1
  9    29   2    1.000     0.000     0.000      0.2519       0.1734000     ;  H4   -    CT1
  9    30   2    1.000     0.000     0.000      0.1639       0.0656900     ;  H4   -    HT1
  9    31   2    1.000     0.000     0.000      0.1639       0.0656900     ;  H4   -    HT1
  9    32   2    1.000     0.000     0.000      0.1639       0.0656900     ;  H4   -    HT1
  9    33   2    1.000     0.000     0.000      0.2519       0.1734000     ;  H4   -    CT1
  9    34   2    1.000     0.000     0.000      0.1639       0.0656900     ;  H4   -    HT1
  9    35   2    1.000     0.000     0.000      0.1639       0.0656900     ;  H4   -    HT1
  9    36   2    1.000     0.000     0.000      0.1639       0.0656900     ;  H4   -    HT1
  9    38   2    1.000     0.000     0.000      0.1639       0.0656900     ;  H4   -    HT2
  9    39   2    1.000     0.000     0.000      0.1639       0.0656900     ;  H4   -    HT2
  9    40   2    1.000     0.000     0.000      0.1639       0.0656900     ;  H4   -    HT2
 10    29   2    1.000     0.000     0.000      0.2519       0.1734000     ;  H4   -    CT1
 10    30   2    1.000     0.000     0.000      0.1639       0.0656900     ;  H4   -    HT1
 10    31   2    1.000     0.000     0.000      0.1639       0.0656900     ;  H4   -    HT1
 10    32   2    1.000     0.000     0.000      0.1639       0.0656900     ;  H4   -    HT1
 10    33   2    1.000     0.000     0.000      0.2519       0.1734000     ;  H4   -    CT1
 10    34   2    1.000     0.000     0.000      0.1639       0.0656900     ;  H4   -    HT1
 10    35   2    1.000     0.000     0.000      0.1639       0.0656900     ;  H4   -    HT1
 10    36   2    1.000     0.000     0.000      0.1639       0.0656900     ;  H4   -    HT1
 10    38   2    1.000     0.000     0.000      0.1639       0.0656900     ;  H4   -    HT2
 10    39   2    1.000     0.000     0.000      0.1639       0.0656900     ;  H4   -    HT2
 10    40   2    1.000     0.000     0.000      0.1639       0.0656900     ;  H4   -    HT2
 11    30   2    1.000     0.000     0.000      0.2486       0.1537400     ;  C5   -    HT1
 11    31   2    1.000     0.000     0.000      0.2486       0.1537400     ;  C5   -    HT1
 11    32   2    1.000     0.000     0.000      0.2486       0.1537400     ;  C5   -    HT1
 11    34   2    1.000     0.000     0.000      0.2486       0.1537400     ;  C5   -    HT1
 11    35   2    1.000     0.000     0.000      0.2486       0.1537400     ;  C5   -    HT1
 11    36   2    1.000     0.000     0.000      0.2486       0.1537400     ;  C5   -    HT1
 29    37   2    1.000     0.000     0.000      0.3400       0.4577300     ;  CT1  -    CT2
 29    38   2    1.000     0.000     0.000      0.2519       0.1734000     ;  CT1  -    HT2
 29    39   2    1.000     0.000     0.000      0.2519       0.1734000     ;  CT1  -    HT2
 30    34   2    1.000     0.000     0.000      0.1639       0.0656900     ;  HT1  -    HT1
 30    35   2    1.000     0.000     0.000      0.1639       0.0656900     ;  HT1  -    HT1
 30    36   2    1.000     0.000     0.000      0.1639       0.0656900     ;  HT1  -    HT1
 30    37   2    1.000     0.000     0.000      0.2519       0.1734000     ;  HT1  -    CT2
 30    38   2    1.000     0.000     0.000      0.1639       0.0656900     ;  HT1  -    HT2
 30    39   2    1.000     0.000     0.000      0.1639       0.0656900     ;  HT1  -    HT2
 30    40   2    1.000     0.000     0.000      0.1639       0.0656900     ;  HT1  -    HT2
 31    34   2    1.000     0.000     0.000      0.1639       0.0656900     ;  HT1  -    HT1
 31    35   2    1.000     0.000     0.000      0.1639       0.0656900     ;  HT1  -    HT1
 31    36   2    1.000     0.000     0.000      0.1639       0.0656900     ;  HT1  -    HT1
 31    37   2    1.000     0.000     0.000      0.2519       0.1734000     ;  HT1  -    CT2
 31    38   2    1.000     0.000     0.000      0.1639       0.0656900     ;  HT1  -    HT2
 31    39   2    1.000     0.000     0.000      0.1639       0.0656900     ;  HT1  -    HT2
 31    40   2    1.000     0.000     0.000      0.1639       0.0656900     ;  HT1  -    HT2
 32    34   2    1.000     0.000     0.000      0.1639       0.0656900     ;  HT1  -    HT1
 32    35   2    1.000     0.000     0.000      0.1639       0.0656900     ;  HT1  -    HT1
 32    36   2    1.000     0.000     0.000      0.1639       0.0656900     ;  HT1  -    HT1
 32    37   2    1.000     0.000     0.000      0.2519       0.1734000     ;  HT1  -    CT2
 32    38   2    1.000     0.000     0.000      0.1639       0.0656900     ;  HT1  -    HT2
 32    39   2    1.000     0.000     0.000      0.1639       0.0656900     ;  HT1  -    HT2
 32    40   2    1.000     0.000     0.000      0.1639       0.0656900     ;  HT1  -    HT2
 33    37   2    1.000     0.000     0.000      0.3400       0.4577300     ;  CT1  -    CT2
 33    38   2    1.000     0.000     0.000      0.2519       0.1734000     ;  CT1  -    HT2
 33    39   2    1.000     0.000     0.000      0.2519       0.1734000     ;  CT1  -    HT2
 33    40   2    1.000     0.000     0.000      0.2519       0.1734000     ;  CT1  -    HT2
 34    37   2    1.000     0.000     0.000      0.2519       0.1734000     ;  HT1  -    CT2
 34    38   2    1.000     0.000     0.000      0.1639       0.0656900     ;  HT1  -    HT2
 34    39   2    1.000     0.000     0.000      0.1639       0.0656900     ;  HT1  -    HT2
 34    40   2    1.000     0.000     0.000      0.1639       0.0656900     ;  HT1  -    HT2
 35    37   2    1.000     0.000     0.000      0.2519       0.1734000     ;  HT1  -    CT2
 35    38   2    1.000     0.000     0.000      0.1639       0.0656900     ;  HT1  -    HT2
 35    39   2    1.000     0.000     0.000      0.1639       0.0656900     ;  HT1  -    HT2
 35    40   2    1.000     0.000     0.000      0.1639       0.0656900     ;  HT1  -    HT2
 36    37   2    1.000     0.000     0.000      0.2519       0.1734000     ;  HT1  -    CT2
 36    38   2    1.000     0.000     0.000      0.1639       0.0656900     ;  HT1  -    HT2
 36    39   2    1.000     0.000     0.000      0.1639       0.0656900     ;  HT1  -    HT2
 36    40   2    1.000     0.000     0.000      0.1639       0.0656900     ;  HT1  -    HT2
; phi1
 38  41   2    1.000    0.000    0.000    0.1239     0.06569     ;  HT2  - HT3
 38  42   2    1.000    0.000    0.000    0.1239     0.06569     ;  HT2  - HT3
 38  43   2    1.000    0.000    0.000    0.1239     0.06569     ;  HT2  - HT3
 38  44   2    1.000    0.000    0.000    0.1239     0.06569     ;  HT2  - HT3
 39  42   2    1.000    0.000    0.000    0.1239     0.06569     ;  HT2  - HT3
 39  43   2    1.000    0.000    0.000    0.1239     0.06569     ;  HT2  - HT3
 39  44   2    1.000    0.000    0.000    0.1239     0.06569     ;  HT2  - HT3
 40  41   2    1.000    0.000    0.000    0.2019     0.17340     ;  HT2  - CT3
 40  42   2    1.000    0.000    0.000    0.1239     0.06569     ;  HT2  - HT3
 40  43   2    1.000    0.000    0.000    0.1239     0.06569     ;  HT2  - HT3
; 1-4 within 8-ring
 19    49   2    0.833     0.000     0.000      0.2519       0.0867000     ;  C81  -    H83
 19    50   2    0.833     0.000     0.000      0.2519       0.0867000     ;  C81  -    H83
 46    51   2    0.833     0.000     0.000      0.2519       0.0867000     ;  C81  -    H83
 47    51   2    0.833     0.000     0.000      0.2519       0.0867000     ;  C81  -    H83
 45    52   2    0.833     0.000     0.000      0.2519       0.0867000     ;  C84  -    H82
 45    53   2    0.833     0.000     0.000      0.2519       0.0867000     ;  C84  -    H82
 48    54   2    0.833     0.000     0.000      0.2519       0.0867000     ;  C83  -    H81
 48    55   2    0.833     0.000     0.000      0.2519       0.0867000     ;  C83  -    H81
; other C---H  LJ within 8-ring
 19    46   2    1.000     0.000     0.000      0.2519       0.1734000     ;  C81  -    H84
 19    47   2    1.000     0.000     0.000      0.2519       0.1734000     ;  C81  -    H84
 45    55   2    0.833     0.000     0.000      0.2519       0.0867000     ;  C84  -    H82
 45    54   2    0.833     0.000     0.000      0.2519       0.0867000     ;  C84  -    H82
; H---H  LJ within 8-ring
 46    49   2    1.000     0.000     0.000      0.1639       0.0656900     ;  H84  -    H82
 46    50   2    1.000     0.000     0.000      0.1639       0.0656900     ;  H84  -    H82
 46    52   2    1.000     0.000     0.000      0.1639       0.0656900     ;  H84  -    H82
 46    53   2    1.000     0.000     0.000      0.1639       0.0656900     ;  H84  -    H81
 46    54   2    1.000     0.000     0.000      0.1639       0.0656900     ;  H84  -    H81
 46    55   2    1.000     0.000     0.000      0.2519       0.1734000     ;  H84  -    CT5
 47    49   2    1.000     0.000     0.000      0.1639       0.0656900     ;  H84  -    H82
 47    50   2    1.000     0.000     0.000      0.1639       0.0656900     ;  H84  -    H82
 47    52   2    1.000     0.000     0.000      0.1639       0.0656900     ;  H84  -    H82
 47    53   2    1.000     0.000     0.000      0.1639       0.0656900     ;  H84  -    H82
 47    54   2    1.000     0.000     0.000      0.1639       0.0656900     ;  H84  -    H81
 47    55   2    1.000     0.000     0.000      0.1639       0.0656900     ;  H84  -    H81
 49    52   2    1.000     0.000     0.000      0.1639       0.0656900     ;  H83  -    H81
 49    53   2    1.000     0.000     0.000      0.1639       0.0656900     ;  H83  -    H81
 49    54   2    1.000     0.000     0.000      0.1639       0.0656900     ;  H83  -    H81
 49    55   2    1.000     0.000     0.000      0.1639       0.0656900     ;  H83  -    H81
 50    52   2    1.000     0.000     0.000      0.1639       0.0656900     ;  H83  -    H81
 50    53   2    1.000     0.000     0.000      0.1639       0.0656900     ;  H83  -    H81
 50    54   2    1.000     0.000     0.000      0.1639       0.0656900     ;  H83  -    H81
 50    55   2    1.000     0.000     0.000      0.1639       0.0656900     ;  H83  -    H81
 52    54   2    1.000     0.000     0.000      0.1639       0.0656900     ;  H83  -    H81
 53    54   2    1.000     0.000     0.000      0.1639       0.0656900     ;  H83  -    H81
 52    55   2    1.000     0.000     0.000      0.1639       0.0656900     ;  H83  -    H81
 53    55   2    1.000     0.000     0.000      0.1639       0.0656900     ;  H83  -    H81
; LJ involving rotation of dihedrals close to 8-ring
 28  46   2    1.000    0.000    0.000    0.1639     0.06569     ;  H15  - H84
 28  47   2    1.000    0.000    0.000    0.1639     0.06569     ;  H15  - H84
 30    52   2    1.000     0.000     0.000      0.1639       0.0656900     ;  HT1  -    H82
 30    53   2    1.000     0.000     0.000      0.1639       0.0656900     ;  HT1  -    H82
 31    52   2    1.000     0.000     0.000      0.1639       0.0656900     ;  HT1  -    H82
 31    53   2    1.000     0.000     0.000      0.1639       0.0656900     ;  HT1  -    H82
 32    52   2    1.000     0.000     0.000      0.1639       0.0656900     ;  HT1  -    H82
 32    53   2    1.000     0.000     0.000      0.1639       0.0656900     ;  HT1  -    H82
 34    52   2    1.000     0.000     0.000      0.1639       0.0656900     ;  HT1  -    H82
 34    53   2    1.000     0.000     0.000      0.1639       0.0656900     ;  HT1  -    H82
 35    52   2    1.000     0.000     0.000      0.1639       0.0656900     ;  HT1  -    H82
 35    53   2    1.000     0.000     0.000      0.1639       0.0656900     ;  HT1  -    H82
 36    52   2    1.000     0.000     0.000      0.1639       0.0656900     ;  HT1  -    H82
 36    53   2    1.000     0.000     0.000      0.1639       0.0656900     ;  HT1  -    H82
 45  60   2    1.000    0.000    0.000    0.3325     0.57059     ;  C84  - NZ
 45  61   2    1.000    0.000    0.000    0.2234     0.17340     ;  C84  - HZ
 46    52   2    1.000     0.000     0.000      0.1639       0.0656900     ;  H84  -    H82
 46    53   2    1.000     0.000     0.000      0.1639       0.0656900     ;  H84  -    H82
 46    54   2    1.000     0.000     0.000      0.1639       0.0656900     ;  H84  -    H81
 46    55   2    1.000     0.000     0.000      0.2519       0.1734000     ;  H84  -    H81
 46  56   2    1.000    0.000    0.000    0.2519     0.17340     ;  H84  - CT5
 46  57   2    1.000    0.000    0.000    0.1800     0.06569     ;  H84  - HT5
 46  58   2    1.000    0.000    0.000    0.1800     0.06569     ;  H84  - HT5
 46  59   2    1.000    0.000    0.000    0.1800     0.06569     ;  H84  - HT5
 46  60   2    1.000    0.000    0.000    0.2445     0.21616     ;  H84  - NZ
 46  61   2    1.000    0.000    0.000    0.1354     0.06569     ;  H84  - HZ
; LJ intra within conjugated chain
; delta1
 14  30   2    1.000    0.000    0.000    0.1639     0.06569     ;  H7   - HT1
 14  31   2    1.000    0.000    0.000    0.1639     0.06569     ;  H7   - HT1
 14  32   2    1.000    0.000    0.000    0.1639     0.06569     ;  H7   - HT1
 14  33   2    1.000    0.000    0.000    0.2519     0.17340     ;  H7   - CT1
 14  34   2    1.000    0.000    0.000    0.1639     0.06569     ;  H7   - HT1
 14  35   2    1.000    0.000    0.000    0.1639     0.06569     ;  H7   - HT1
 14  36   2    1.000    0.000    0.000    0.1639     0.06569     ;  H7   - HT1
 14  38   2    1.000    0.000    0.000    0.1639     0.06569     ;  H7   - HT2
 14  39   2    1.000    0.000    0.000    0.1639     0.06569     ;  H7   - HT2
 14  40   2    1.000    0.000    0.000    0.1639     0.06569     ;  H7   - HT2
 14  42   2    1.000    0.000    0.000    0.1639     0.06569     ;  H7   - HT3
 14  43   2    1.000    0.000    0.000    0.1639     0.06569     ;  H7   - HT3
 14  44   2    1.000    0.000    0.000    0.1639     0.06569     ;  H7   - HT3
; delta2
 14  46   2    1.000    0.000    0.000    0.1139     0.06569     ;  H7   - H84
 14  47   2    1.000    0.000    0.000    0.1139     0.06569     ;  H7   - H84
 14  48   2    1.000    0.000    0.000    0.2019     0.17340     ;  H7   - C83
 14  49   2    1.000    0.000    0.000    0.1139     0.06569     ;  H7   - H83
 14  50   2    1.000    0.000    0.000    0.1139     0.06569     ;  H7   - H83
 14  51   2    1.000    0.000    0.000    0.2019     0.17340     ;  H7   - C82
 14  52   2    1.000    0.000    0.000    0.1139     0.06569     ;  H7   - H82
 14  53   2    1.000    0.000    0.000    0.1139     0.06569     ;  H7   - H82
 14  54   2    1.000    0.000    0.000    0.1139     0.06569     ;  H7   - H81
 14  55   2    1.000    0.000    0.000    0.1139     0.06569     ;  H7   - H81
;  delta 1
 16  30   2    1.000    0.000    0.000    0.1639     0.06569     ;  H8   - HT1
 16  31   2    1.000    0.000    0.000    0.1639     0.06569     ;  H8   - HT1
 16  32   2    1.000    0.000    0.000    0.1639     0.06569     ;  H8   - HT1
 16  34   2    1.000    0.000    0.000    0.1639     0.06569     ;  H8   - HT1
 16  35   2    1.000    0.000    0.000    0.1639     0.06569     ;  H8   - HT1
 16  36   2    1.000    0.000    0.000    0.1639     0.06569     ;  H8   - HT1
 16  38   2    1.000    0.000    0.000    0.1639     0.06569     ;  H8   - HT2
 16  39   2    1.000    0.000    0.000    0.1639     0.06569     ;  H8   - HT2
 16  40   2    1.000    0.000    0.000    0.1639     0.06569     ;  H8   - HT2
 16  52   2    1.000    0.000    0.000    0.1639     0.06569     ;  H8   - HT2
 16  53   2    1.000    0.000    0.000    0.1639     0.06569     ;  H8   - HT2
 16  54   2    1.000    0.000    0.000    0.1639     0.06569     ;  H8   - HT2
 16  55   2    1.000    0.000    0.000    0.1639     0.06569     ;  H8   - HT2
; others
 21    42   2    1.000     0.000     0.000      0.1639       0.0656900     ;  H11  -    HT3
 21    43   2    1.000     0.000     0.000      0.1639       0.0656900     ;  H11  -    HT3
 21    44   2    1.000     0.000     0.000      0.1639       0.0656900     ;  H11  -    HT3
 26  46   2    1.000    0.000    0.000    0.1639     0.06569     ;  H14  - H84
 26  47   2    1.000    0.000    0.000    0.1639     0.06569     ;  H14  - H84
 
; Exclusions from default nonbonded
[ exclusions ]
; ai        aj
     1     2
     1     3
     1     4
     1     5
     1     6
     1     7
     1     8
     1     9
     1    10
     1    11
     1    12
     1    13
     1    14
     1    15
     1    16
     1    17
     1    18
     1    19
     1    20
     1    21
     1    22
     1    23
     1    24
     1    25
     1    26
     1    27
     1    28
     1    29
     1    30
     1    31
     1    32
     1    33
     1    34
     1    35
     1    36
     1    37
     1    38
     1    39
     1    40
     1    41
     1    42
     1    43
     1    44
     1    45
     1    46
     1    47
     1    48
     1    49
     1    50
     1    51
     1    52
     1    53
     1    54
     1    55
     1    56
     1    57
     1    58
     1    59
     1    60
     1    61
     2     3
     2     4
     2     5
     2     6
     2     7
     2     8
     2     9
     2    10
     2    11
     2    12
     2    13
     2    14
     2    15
     2    16
     2    17
     2    18
     2    19
     2    20
     2    21
     2    22
     2    23
     2    24
     2    25
     2    26
     2    27
     2    28
     2    29
     2    30
     2    31
     2    32
     2    33
     2    34
     2    35
     2    36
     2    37
     2    38
     2    39
     2    40
     2    41
     2    42
     2    43
     2    44
     2    45
     2    46
     2    47
     2    48
     2    49
     2    50
     2    51
     2    52
     2    53
     2    54
     2    55
     2    56
     2    57
     2    58
     2    59
     2    60
     2    61
     3     4
     3     5
     3     6
     3     7
     3     8
     3     9
     3    10
     3    11
     3    12
     3    13
     3    14
     3    15
     3    16
     3    17
     3    18
     3    19
     3    20
     3    21
     3    22
     3    23
     3    24
     3    25
     3    26
     3    27
     3    28
     3    29
     3    30
     3    31
     3    32
     3    33
     3    34
     3    35
     3    36
     3    37
     3    38
     3    39
     3    40
     3    41
     3    42
     3    43
     3    44
     3    45
     3    46
     3    47
     3    48
     3    49
     3    50
     3    51
     3    52
     3    53
     3    54
     3    55
     3    56
     3    57
     3    58
     3    59
     3    60
     3    61
     4     5
     4     6
     4     7
     4     8
     4     9
     4    10
     4    11
     4    12
     4    13
     4    14
     4    15
     4    16
     4    17
     4    18
     4    19
     4    20
     4    21
     4    22
     4    23
     4    24
     4    25
     4    26
     4    27
     4    28
     4    29
     4    30
     4    31
     4    32
     4    33
     4    34
     4    35
     4    36
     4    37
     4    38
     4    39
     4    40
     4    41
     4    42
     4    43
     4    44
     4    45
     4    46
     4    47
     4    48
     4    49
     4    50
     4    51
     4    52
     4    53
     4    54
     4    55
     4    56
     4    57
     4    58
     4    59
     4    60
     4    61
     5     6
     5     7
     5     8
     5     9
     5    10
     5    11
     5    12
     5    13
     5    14
     5    15
     5    16
     5    17
     5    18
     5    19
     5    20
     5    21
     5    22
     5    23
     5    24
     5    25
     5    26
     5    27
     5    28
     5    29
     5    30
     5    31
     5    32
     5    33
     5    34
     5    35
     5    36
     5    37
     5    38
     5    39
     5    40
     5    41
     5    42
     5    43
     5    44
     5    45
     5    46
     5    47
     5    48
     5    49
     5    50
     5    51
     5    52
     5    53
     5    54
     5    55
     5    56
     5    57
     5    58
     5    59
     5    60
     5    61
     6     7
     6     8
     6     9
     6    10
     6    11
     6    12
     6    13
     6    14
     6    15
     6    16
     6    17
     6    18
     6    19
     6    20
     6    21
     6    22
     6    23
     6    24
     6    25
     6    26
     6    27
     6    28
     6    29
     6    30
     6    31
     6    32
     6    33
     6    34
     6    35
     6    36
     6    37
     6    38
     6    39
     6    40
     6    41
     6    42
     6    43
     6    44
     6    45
     6    46
     6    47
     6    48
     6    49
     6    50
     6    51
     6    52
     6    53
     6    54
     6    55
     6    56
     6    57
     6    58
     6    59
     6    60
     6    61
     7     8
     7     9
     7    10
     7    11
     7    12
     7    13
     7    14
     7    15
     7    16
     7    17
     7    18
     7    19
     7    20
     7    21
     7    22
     7    23
     7    24
     7    25
     7    26
     7    27
     7    28
     7    29
     7    30
     7    31
     7    32
     7    33
     7    34
     7    35
     7    36
     7    37
     7    38
     7    39
     7    40
     7    41
     7    42
     7    43
     7    44
     7    45
     7    46
     7    47
     7    48
     7    49
     7    50
     7    51
     7    52
     7    53
     7    54
     7    55
     7    56
     7    57
     7    58
     7    59
     7    60
     7    61
     8     9
     8    10
     8    11
     8    12
     8    13
     8    14
     8    15
     8    16
     8    17
     8    18
     8    19
     8    20
     8    21
     8    22
     8    23
     8    24
     8    25
     8    26
     8    27
     8    28
     8    29
     8    30
     8    31
     8    32
     8    33
     8    34
     8    35
     8    36
     8    37
     8    38
     8    39
     8    40
     8    41
     8    42
     8    43
     8    44
     8    45
     8    46
     8    47
     8    48
     8    49
     8    50
     8    51
     8    52
     8    53
     8    54
     8    55
     8    56
     8    57
     8    58
     8    59
     8    60
     8    61
     9    10
     9    11
     9    12
     9    13
     9    14
     9    15
     9    16
     9    17
     9    18
     9    19
     9    20
     9    21
     9    22
     9    23
     9    24
     9    25
     9    26
     9    27
     9    28
     9    29
     9    30
     9    31
     9    32
     9    33
     9    34
     9    35
     9    36
     9    37
     9    38
     9    39
     9    40
     9    41
     9    42
     9    43
     9    44
     9    45
     9    46
     9    47
     9    48
     9    49
     9    50
     9    51
     9    52
     9    53
     9    54
     9    55
     9    56
     9    57
     9    58
     9    59
     9    60
     9    61
    10    11
    10    12
    10    13
    10    14
    10    15
    10    16
    10    17
    10    18
    10    19
    10    20
    10    21
    10    22
    10    23
    10    24
    10    25
    10    26
    10    27
    10    28
    10    29
    10    30
    10    31
    10    32
    10    33
    10    34
    10    35
    10    36
    10    37
    10    38
    10    39
    10    40
    10    41
    10    42
    10    43
    10    44
    10    45
    10    46
    10    47
    10    48
    10    49
    10    50
    10    51
    10    52
    10    53
    10    54
    10    55
    10    56
    10    57
    10    58
    10    59
    10    60
    10    61
    11    12
    11    13
    11    14
    11    15
    11    16
    11    17
    11    18
    11    19
    11    20
    11    21
    11    22
    11    23
    11    24
    11    25
    11    26
    11    27
    11    28
    11    29
    11    30
    11    31
    11    32
    11    33
    11    34
    11    35
    11    36
    11    37
    11    38
    11    39
    11    40
    11    41
    11    42
    11    43
    11    44
    11    45
    11    46
    11    47
    11    48
    11    49
    11    50
    11    51
    11    52
    11    53
    11    54
    11    55
    11    56
    11    57
    11    58
    11    59
    11    60
    11    61
    12    13
    12    14
    12    15
    12    16
    12    17
    12    18
    12    19
    12    20
    12    21
    12    22
    12    23
    12    24
    12    25
    12    26
    12    27
    12    28
    12    29
    12    30
    12    31
    12    32
    12    33
    12    34
    12    35
    12    36
    12    37
    12    38
    12    39
    12    40
    12    41
    12    42
    12    43
    12    44
    12    45
    12    46
    12    47
    12    48
    12    49
    12    50
    12    51
    12    52
    12    53
    12    54
    12    55
    12    56
    12    57
    12    58
    12    59
    12    60
    12    61
    13    14
    13    15
    13    16
    13    17
    13    18
    13    19
    13    20
    13    21
    13    22
    13    23
    13    24
    13    25
    13    26
    13    27
    13    28
    13    29
    13    30
    13    31
    13    32
    13    33
    13    34
    13    35
    13    36
    13    37
    13    38
    13    39
    13    40
    13    41
    13    42
    13    43
    13    44
    13    45
    13    46
    13    47
    13    48
    13    49
    13    50
    13    51
    13    52
    13    53
    13    54
    13    55
    13    56
    13    57
    13    58
    13    59
    13    60
    13    61
    14    15
    14    16
    14    17
    14    18
    14    19
    14    20
    14    21
    14    22
    14    23
    14    24
    14    25
    14    26
    14    27
    14    28
    14    29
    14    30
    14    31
    14    32
    14    33
    14    34
    14    35
    14    36
    14    37
    14    38
    14    39
    14    40
    14    41
    14    42
    14    43
    14    44
    14    45
    14    46
    14    47
    14    48
    14    49
    14    50
    14    51
    14    52
    14    53
    14    54
    14    55
    14    56
    14    57
    14    58
    14    59
    14    60
    14    61
    15    16
    15    17
    15    18
    15    19
    15    20
    15    21
    15    22
    15    23
    15    24
    15    25
    15    26
    15    27
    15    28
    15    29
    15    30
    15    31
    15    32
    15    33
    15    34
    15    35
    15    36
    15    37
    15    38
    15    39
    15    40
    15    41
    15    42
    15    43
    15    44
    15    45
    15    46
    15    47
    15    48
    15    49
    15    50
    15    51
    15    52
    15    53
    15    54
    15    55
    15    56
    15    57
    15    58
    15    59
    15    60
    15    61
    16    17
    16    18
    16    19
    16    20
    16    21
    16    22
    16    23
    16    24
    16    25
    16    26
    16    27
    16    28
    16    29
    16    30
    16    31
    16    32
    16    33
    16    34
    16    35
    16    36
    16    37
    16    38
    16    39
    16    40
    16    41
    16    42
    16    43
    16    44
    16    45
    16    46
    16    47
    16    48
    16    49
    16    50
    16    51
    16    52
    16    53
    16    54
    16    55
    16    56
    16    57
    16    58
    16    59
    16    60
    16    61
    17    18
    17    19
    17    20
    17    21
    17    22
    17    23
    17    24
    17    25
    17    26
    17    27
    17    28
    17    29
    17    30
    17    31
    17    32
    17    33
    17    34
    17    35
    17    36
    17    37
    17    38
    17    39
    17    40
    17    41
    17    42
    17    43
    17    44
    17    45
    17    46
    17    47
    17    48
    17    49
    17    50
    17    51
    17    52
    17    53
    17    54
    17    55
    17    56
    17    57
    17    58
    17    59
    17    60
    17    61
    18    19
    18    20
    18    21
    18    22
    18    23
    18    24
    18    25
    18    26
    18    27
    18    28
    18    29
    18    30
    18    31
    18    32
    18    33
    18    34
    18    35
    18    36
    18    37
    18    38
    18    39
    18    40
    18    41
    18    42
    18    43
    18    44
    18    45
    18    46
    18    47
    18    48
    18    49
    18    50
    18    51
    18    52
    18    53
    18    54
    18    55
    18    56
    18    57
    18    58
    18    59
    18    60
    18    61
    19    20
    19    21
    19    22
    19    23
    19    24
    19    25
    19    26
    19    27
    19    28
    19    29
    19    30
    19    31
    19    32
    19    33
    19    34
    19    35
    19    36
    19    37
    19    38
    19    39
    19    40
    19    41
    19    42
    19    43
    19    44
    19    45
    19    46
    19    47
    19    48
    19    49
    19    50
    19    51
    19    52
    19    53
    19    54
    19    55
    19    56
    19    57
    19    58
    19    59
    19    60
    19    61
    20    21
    20    22
    20    23
    20    24
    20    25
    20    26
    20    27
    20    28
    20    29
    20    30
    20    31
    20    32
    20    33
    20    34
    20    35
    20    36
    20    37
    20    38
    20    39
    20    40
    20    41
    20    42
    20    43
    20    44
    20    45
    20    46
    20    47
    20    48
    20    49
    20    50
    20    51
    20    52
    20    53
    20    54
    20    55
    20    56
    20    57
    20    58
    20    59
    20    60
    20    61
    21    22
    21    23
    21    24
    21    25
    21    26
    21    27
    21    28
    21    29
    21    30
    21    31
    21    32
    21    33
    21    34
    21    35
    21    36
    21    37
    21    38
    21    39
    21    40
    21    41
    21    42
    21    43
    21    44
    21    45
    21    46
    21    47
    21    48
    21    49
    21    50
    21    51
    21    52
    21    53
    21    54
    21    55
    21    56
    21    57
    21    58
    21    59
    21    60
    21    61
    22    23
    22    24
    22    25
    22    26
    22    27
    22    28
    22    29
    22    30
    22    31
    22    32
    22    33
    22    34
    22    35
    22    36
    22    37
    22    38
    22    39
    22    40
    22    41
    22    42
    22    43
    22    44
    22    45
    22    46
    22    47
    22    48
    22    49
    22    50
    22    51
    22    52
    22    53
    22    54
    22    55
    22    56
    22    57
    22    58
    22    59
    22    60
    22    61
    23    24
    23    25
    23    26
    23    27
    23    28
    23    29
    23    30
    23    31
    23    32
    23    33
    23    34
    23    35
    23    36
    23    37
    23    38
    23    39
    23    40
    23    41
    23    42
    23    43
    23    44
    23    45
    23    46
    23    47
    23    48
    23    49
    23    50
    23    51
    23    52
    23    53
    23    54
    23    55
    23    56
    23    57
    23    58
    23    59
    23    60
    23    61
    24    25
    24    26
    24    27
    24    28
    24    29
    24    30
    24    31
    24    32
    24    33
    24    34
    24    35
    24    36
    24    37
    24    38
    24    39
    24    40
    24    41
    24    42
    24    43
    24    44
    24    45
    24    46
    24    47
    24    48
    24    49
    24    50
    24    51
    24    52
    24    53
    24    54
    24    55
    24    56
    24    57
    24    58
    24    59
    24    60
    24    61
    25    26
    25    27
    25    28
    25    29
    25    30
    25    31
    25    32
    25    33
    25    34
    25    35
    25    36
    25    37
    25    38
    25    39
    25    40
    25    41
    25    42
    25    43
    25    44
    25    45
    25    46
    25    47
    25    48
    25    49
    25    50
    25    51
    25    52
    25    53
    25    54
    25    55
    25    56
    25    57
    25    58
    25    59
    25    60
    25    61
    26    27
    26    28
    26    29
    26    30
    26    31
    26    32
    26    33
    26    34
    26    35
    26    36
    26    37
    26    38
    26    39
    26    40
    26    41
    26    42
    26    43
    26    44
    26    45
    26    46
    26    47
    26    48
    26    49
    26    50
    26    51
    26    52
    26    53
    26    54
    26    55
    26    56
    26    57
    26    58
    26    59
    26    60
    26    61
    27    28
    27    29
    27    30
    27    31
    27    32
    27    33
    27    34
    27    35
    27    36
    27    37
    27    38
    27    39
    27    40
    27    41
    27    42
    27    43
    27    44
    27    45
    27    46
    27    47
    27    48
    27    49
    27    50
    27    51
    27    52
    27    53
    27    54
    27    55
    27    56
    27    57
    27    58
    27    59
    27    60
    27    61
    28    29
    28    30
    28    31
    28    32
    28    33
    28    34
    28    35
    28    36
    28    37
    28    38
    28    39
    28    40
    28    41
    28    42
    28    43
    28    44
    28    45
    28    46
    28    47
    28    48
    28    49
    28    50
    28    51
    28    52
    28    53
    28    54
    28    55
    28    56
    28    57
    28    58
    28    59
    28    60
    28    61
    29    30
    29    31
    29    32
    29    33
    29    34
    29    35
    29    36
    29    37
    29    38
    29    39
    29    40
    29    41
    29    42
    29    43
    29    44
    29    45
    29    46
    29    47
    29    48
    29    49
    29    50
    29    51
    29    52
    29    53
    29    54
    29    55
    29    56
    29    57
    29    58
    29    59
    29    60
    29    61
    30    31
    30    32
    30    33
    30    34
    30    35
    30    36
    30    37
    30    38
    30    39
    30    40
    30    41
    30    42
    30    43
    30    44
    30    45
    30    46
    30    47
    30    48
    30    49
    30    50
    30    51
    30    52
    30    53
    30    54
    30    55
    30    56
    30    57
    30    58
    30    59
    30    60
    30    61
    31    32
    31    33
    31    34
    31    35
    31    36
    31    37
    31    38
    31    39
    31    40
    31    41
    31    42
    31    43
    31    44
    31    45
    31    46
    31    47
    31    48
    31    49
    31    50
    31    51
    31    52
    31    53
    31    54
    31    55
    31    56
    31    57
    31    58
    31    59
    31    60
    31    61
    32    33
    32    34
    32    35
    32    36
    32    37
    32    38
    32    39
    32    40
    32    41
    32    42
    32    43
    32    44
    32    45
    32    46
    32    47
    32    48
    32    49
    32    50
    32    51
    32    52
    32    53
    32    54
    32    55
    32    56
    32    57
    32    58
    32    59
    32    60
    32    61
    33    34
    33    35
    33    36
    33    37
    33    38
    33    39
    33    40
    33    41
    33    42
    33    43
    33    44
    33    45
    33    46
    33    47
    33    48
    33    49
    33    50
    33    51
    33    52
    33    53
    33    54
    33    55
    33    56
    33    57
    33    58
    33    59
    33    60
    33    61
    34    35
    34    36
    34    37
    34    38
    34    39
    34    40
    34    41
    34    42
    34    43
    34    44
    34    45
    34    46
    34    47
    34    48
    34    49
    34    50
    34    51
    34    52
    34    53
    34    54
    34    55
    34    56
    34    57
    34    58
    34    59
    34    60
    34    61
    35    36
    35    37
    35    38
    35    39
    35    40
    35    41
    35    42
    35    43
    35    44
    35    45
    35    46
    35    47
    35    48
    35    49
    35    50
    35    51
    35    52
    35    53
    35    54
    35    55
    35    56
    35    57
    35    58
    35    59
    35    60
    35    61
    36    37
    36    38
    36    39
    36    40
    36    41
    36    42
    36    43
    36    44
    36    45
    36    46
    36    47
    36    48
    36    49
    36    50
    36    51
    36    52
    36    53
    36    54
    36    55
    36    56
    36    57
    36    58
    36    59
    36    60
    36    61
    37    38
    37    39
    37    40
    37    41
    37    42
    37    43
    37    44
    37    45
    37    46
    37    47
    37    48
    37    49
    37    50
    37    51
    37    52
    37    53
    37    54
    37    55
    37    56
    37    57
    37    58
    37    59
    37    60
    37    61
    38    39
    38    40
    38    41
    38    42
    38    43
    38    44
    38    45
    38    46
    38    47
    38    48
    38    49
    38    50
    38    51
    38    52
    38    53
    38    54
    38    55
    38    56
    38    57
    38    58
    38    59
    38    60
    38    61
    39    40
    39    41
    39    42
    39    43
    39    44
    39    45
    39    46
    39    47
    39    48
    39    49
    39    50
    39    51
    39    52
    39    53
    39    54
    39    55
    39    56
    39    57
    39    58
    39    59
    39    60
    39    61
    40    41
    40    42
    40    43
    40    44
    40    45
    40    46
    40    47
    40    48
    40    49
    40    50
    40    51
    40    52
    40    53
    40    54
    40    55
    40    56
    40    57
    40    58
    40    59
    40    60
    40    61
    41    42
    41    43
    41    44
    41    45
    41    46
    41    47
    41    48
    41    49
    41    50
    41    51
    41    52
    41    53
    41    54
    41    55
    41    56
    41    57
    41    58
    41    59
    41    60
    41    61
    42    43
    42    44
    42    45
    42    46
    42    47
    42    48
    42    49
    42    50
    42    51
    42    52
    42    53
    42    54
    42    55
    42    56
    42    57
    42    58
    42    59
    42    60
    42    61
    43    44
    43    45
    43    46
    43    47
    43    48
    43    49
    43    50
    43    51
    43    52
    43    53
    43    54
    43    55
    43    56
    43    57
    43    58
    43    59
    43    60
    43    61
    44    45
    44    46
    44    47
    44    48
    44    49
    44    50
    44    51
    44    52
    44    53
    44    54
    44    55
    44    56
    44    57
    44    58
    44    59
    44    60
    44    61
    45    46
    45    47
    45    48
    45    49
    45    50
    45    51
    45    52
    45    53
    45    54
    45    55
    45    56
    45    57
    45    58
    45    59
    45    60
    45    61
    46    47
    46    48
    46    49
    46    50
    46    51
    46    52
    46    53
    46    54
    46    55
    46    56
    46    57
    46    58
    46    59
    46    60
    46    61
    47    48
    47    49
    47    50
    47    51
    47    52
    47    53
    47    54
    47    55
    47    56
    47    57
    47    58
    47    59
    47    60
    47    61
    48    49
    48    50
    48    51
    48    52
    48    53
    48    54
    48    55
    48    56
    48    57
    48    58
    48    59
    48    60
    48    61
    49    50
    49    51
    49    52
    49    53
    49    54
    49    55
    49    56
    49    57
    49    58
    49    59
    49    60
    49    61
    50    51
    50    52
    50    53
    50    54
    50    55
    50    56
    50    57
    50    58
    50    59
    50    60
    50    61
    51    52
    51    53
    51    54
    51    55
    51    56
    51    57
    51    58
    51    59
    51    60
    51    61
    52    53
    52    54
    52    55
    52    56
    52    57
    52    58
    52    59
    52    60
    52    61
    53    54
    53    55
    53    56
    53    57
    53    58
    53    59
    53    60
    53    61
    54    55
    54    56
    54    57
    54    58
    54    59
    54    60
    54    61
    55    56
    55    57
    55    58
    55    59
    55    60
    55    61
    56    57
    56    58
    56    59
    56    60
    56    61
    57    58
    57    59
    57    60
    57    61
    58    59
    58    60
    58    61
    59    60
    59    61
    60    61
