;
;	MD in vacuo for Intra-FF checking
;

; VARIOUS PREPROCESSING OPTIONS
include                  = 
define                   =

; RUN CONTROL PARAMETERS
integrator               = md
; start time and timestep in ps
tinit                    = 0.0
dt                       = 0.0001
nsteps                   = 5000000
; after checkpoint or tpbconv restart we can start on step > 0
init_step                = 0
; mode for center of mass motion removal
comm-mode                = Angular
; number of steps for center of mass motion removal
nstcomm                  = 1
; group(s) for center of mass motion removal
comm-grps                =  


; OUTPUT CONTROL OPTIONS
; Output frequency for coords (x), velocities (v) and forces (f)
nstxout                  = 1000
nstvout                  = 0
nstfout                  = 0
; Checkpointing helps you continue after crashes
nstcheckpoint            = 0
; Output frequency for energies to log file and energy file
nstlog                   = 5000
nstenergy                = 5000
; Output frequency and precision for xtc file
nstxtcout                = 5000
xtc_precision            = 1000
; This selects the subset of atoms for the xtc file. You can
; select multiple groups. By default all atoms will be written.
xtc-grps                 = 

; Selection of energy groups
energygrps   =  RET
freezegrps   =   
freezedim    =   

; NEIGHBORSEARCHING PARAMETERS
; nblist update frequency
nstlist                  = 4
; ns algorithm (simple or grid)
ns_type                  = simple
; Periodic boundary conditions: xyz or no
pbc                      = no
; nblist cut-off        
rlist                    = 1.1



; OPTIONS FOR ELECTROSTATICS AND VDW
; Method for doing electrostatics
coulombtype              = cut-off
rcoulomb-switch          = 0
rcoulomb                 = 1.1
; Dielectric constant (DC) for cut-off or DC of reaction field
epsilon_r                = 1
; Method for doing Van der Waals
vdw-type                 = Cut-off
; cut-off lengths       
rvdw-switch              = 0
rvdw                     = 1.1
; Apply long range dispersion corrections for Energy and Pressure
DispCorr                 = no
; Spacing for the PME/PPPM FFT grid
fourierspacing           = 0.12
; FFT grid size, when a value is 0 fourierspacing will be used
 fourier_nx               = 0
 fourier_ny               = 0
 fourier_nz               = 0
; EWALD/PME/PPPM parameters
pme_order                = 4
ewald_rtol               = 1e-05
epsilon_surface          = 0
optimize_fft             = no


; OPTIONS FOR WEAK COUPLING ALGORITHMS
; Temperature coupling  
tcoupl                   = v-rescale
; Groups to couple separately
tc_grps                  = RET 
; Time constant (ps) and reference temperature (K)
tau_t                    = 0.1  
ref_t                    = 298
; Pressure coupling     
Pcoupl                   = no
Pcoupltype               = Isotropic
; Time constant (ps), compressibility (1/bar) and reference P (bar)
tau_p                    = 10.0
compressibility          = 5e-5
ref_p                    = 1.0


; GENERATE VELOCITIES FOR STARTUP RUN
gen_vel                  = yes

; OPTIONS FOR BONDS    
constraints              = none

