integrator               = l-bfgs
nsteps                   = 100000
emtol                    = 0.000001

nstenergy                = 1
nstcalcenergy            = 1

nstlist                  = 0
nstype                   = simple
pbc                      = no
rlist                    = 0.0

coulombtype              = Cut-off
rcoulomb                 = 0.0

vdwtype                  = Cut-off
rvdw                     = 0.0
